
 Primary working directories    : /home/graham/scratch/molpro/but_fc_cas_freq_1
 Secondary working directories  : /home/graham/scratch/molpro/but_fc_cas_freq_1
 Wavefunction directory         : /home/graham/scratch/molpro/but_fc_cas_freq_1/
 Main file repository           : /home/graham/scratch/molpro/but_fc_cas_freq_1/

 SHA1      : 0b0b022c660e73fb8d4a354a6920c32f9035fdc5
 NAME      : 2015.1.3
 ARCHNAME  : linux/x86_64
 FC        : /opt/intel/composer_xe_2015.1.133/bin/intel64/ifort
 BLASLIB   : -Wl,-_start-group /opt/intel/mkl/lib/intel64/libmkl_intel_ilp64.a /opt/intel/mkl/lib/intel64/libmkl_intel_thread.a /opt/intel/mkl/lib/intel64/libmkl_core.a -Wl,-_end-group
 id        : gwbham

 Nodes     nprocs
 gwlaptop     1

 Using customized tuning parameters: mindgm=1; mindgv=20; mindgc=4; mindgr=1; noblas=0; minvec=7
 default implementation of scratch files=df  

 ***,Butatriene Neutral
 memory,0.5,G
 nosym
 noextra
 angstrom
 geometry={
 8
 Butatriene
  C1   ,      0.0000000000    ,    0.0000000000   ,     1.9651683419
  C2   ,      0.0000000000    ,    0.0000000000   ,     0.6334638546
  C3   ,      0.0000000000    ,    0.0000000000   ,    -0.6334638546
  C4   ,      0.0000000000    ,   -0.0000000000   ,    -1.9651683419
  H1   ,      0.0000000000    ,    0.9194412347   ,    -2.5213978660
  H2   ,      0.0000000000    ,   -0.9194412347   ,    -2.5213978660
  H3   ,      0.0000000000    ,    0.9194412347   ,     2.5213978660
  H4   ,      0.0000000000    ,   -0.9194412347   ,     2.5213978660
 }
 basis=6-31G*
 hf
 
 {multi
 closed, 11;
 occ, 17;
 start 2100.2;
 wf,28,1,0;
 CPMCSCF,grad,1.1,accu=1.0d-8,record=5101.1;
 print,orbitals,civector
 orbital, 2141.2;
 orbprint,100
 }
 
 {Force;SAMC,5101.1}
 {Frequencies,analytical,noproject,new;print,hessian}
 
 
  {matrop
  load,oldorbitals,orb,2141.2
  write,oldorbitals,but_000.dat;
  }
   put,molden,but_000.molden;
 

 Variables initialized (889), CPU time= 0.02 sec
 Commands  initialized (702), CPU time= 0.03 sec, 572 directives.
 Default parameters read. Elapsed time= 0.05 sec

 Checking input...
 Passed
1


                                         ***  PROGRAM SYSTEM MOLPRO  ***
                                       Copyright, TTI GmbH Stuttgart, 2015
                                    Version 2015.1 linked Feb  5 2016 14:18:43


 **********************************************************************************************************************************
 LABEL *   Butatriene Neutral                                                            
  64 bit serial version                                                                  DATE: 15-Jun-23          TIME: 03:19:06  
 **********************************************************************************************************************************

 SHA1:             0b0b022c660e73fb8d4a354a6920c32f9035fdc5
 **********************************************************************************************************************************

 Variable memory set to  500000000 words,  buffer space   230000 words

 ZSYMEL=NOSYM
 ZUNIT=ANG
 

Geometry recognized as XYZ

 SETTING BASIS          =    6-31G*


 Recomputing integrals since basis changed


 Using spherical harmonics

 Library entry C      S 6-31G                selected for orbital group  1
 Library entry C      P 6-31G                selected for orbital group  1
 Library entry C      D 6-31G*               selected for orbital group  1
 Library entry H      S 6-31G                selected for orbital group  2

1PROGRAM * SEWARD (Integral evaluation for generally contracted gaussian basis sets)     Author: Roland Lindh, 1990

 Geometry written to block  1 of record 700


 Point group  C1  



 ATOMIC COORDINATES

 NR  ATOM    CHARGE       X              Y              Z

   1  C1      6.00    0.000000000    0.000000000    3.713629955
   2  C2      6.00    0.000000000    0.000000000    1.197073195
   3  C3      6.00    0.000000000    0.000000000   -1.197073195
   4  C4      6.00    0.000000000    0.000000000   -3.713629955
   5  H1      1.00    0.000000000    1.737492121   -4.764751418
   6  H2      1.00    0.000000000   -1.737492121   -4.764751418
   7  H3      1.00    0.000000000    1.737492121    4.764751418
   8  H4      1.00    0.000000000   -1.737492121    4.764751418

 Bond lengths in Bohr (Angstrom)

 1-2  2.516556760  1-7  2.030698205  1-8  2.030698205  2-3  2.394146390  3-4  2.516556760
     ( 1.331704487)     ( 1.074599213)     ( 1.074599213)     ( 1.266927709)     ( 1.331704487)

 4-5  2.030698205  4-6  2.030698205
     ( 1.074599213)     ( 1.074599213)

 Bond angles

  1-2-3  179.99999829   2-1-7  121.17245910   2-1-8  121.17245910   2-3-4  179.99999829

  3-4-5  121.17245910   3-4-6  121.17245910   5-4-6  117.65508181   7-1-8  117.65508181

 NUCLEAR CHARGE:                   28
 NUMBER OF PRIMITIVE AOS:         128
 NUMBER OF SYMMETRY AOS:          124
 NUMBER OF CONTRACTIONS:           64   (  64A   )
 NUMBER OF CORE ORBITALS:           4   (   4A   )
 NUMBER OF VALENCE ORBITALS:       20   (  20A   )


 NUCLEAR REPULSION ENERGY   88.64313511

 Extra symmetries disabled

 Eigenvalues of metric

         1 0.254E-03 0.254E-02 0.748E-02 0.195E-01 0.392E-01 0.408E-01 0.434E-01 0.881E-01


 Contracted 2-electron integrals neglected if value below      1.0D-11
 AO integral compression algorithm  1   Integral accuracy      1.0D-11

     4.194 MB (compressed) written to integral file ( 20.5%)


 NUMBER OF SORTED TWO-ELECTRON INTEGRALS:    2164240.     BUFFER LENGTH:  32768
 NUMBER OF SEGMENTS:   1  SEGMENT LENGTH:    2164240      RECORD LENGTH: 524288

 Memory used in sort:       2.72 MW

 SORT1 READ     2585857. AND WROTE      712676. INTEGRALS IN      3 RECORDS. CPU TIME:     0.04 SEC, REAL TIME:     0.05 SEC
 SORT2 READ      712676. AND WROTE     2164240. INTEGRALS IN     16 RECORDS. CPU TIME:     0.06 SEC, REAL TIME:     0.08 SEC

 FILE SIZES:   FILE 1:    23.5 MBYTE,  FILE 4:    12.6 MBYTE,   TOTAL:     36.2 MBYTE

 OPERATOR DM      FOR CENTER  0  COORDINATES:    0.000000    0.000000    0.000000


 **********************************************************************************************************************************
 DATASETS  * FILE   NREC   LENGTH (MB)   RECORD NAMES
              1      19       22.58       500      610      700      900      950      970     1000      129      960     1100   
                                          VAR    BASINP    GEOM    SYMINP    ZMAT    AOBASIS   BASIS     P2S    ABASIS      S 
                                         1400     1410     1200     1210     1080     1600     1650     1300     1700   
                                           T        V       H0       H01     AOSYM     SMH    MOLCAS    ERIS     OPER   

 PROGRAMS   *        TOTAL       INT
 CPU TIMES  *         0.77      0.60
 REAL TIME  *         0.92 SEC
 DISK USED  *        36.56 MB      
 **********************************************************************************************************************************

1PROGRAM * RHF-SCF (CLOSED SHELL)       Authors: W. Meyer, H.-J. Werner


 NUMBER OF ELECTRONS:      14+   14-    SPACE SYMMETRY=1    SPIN SYMMETRY: Singlet 
 CONVERGENCE THRESHOLDS:    1.00E-06 (Density)    1.00E-07 (Energy)
 MAX. NUMBER OF ITERATIONS:       60
 INTERPOLATION TYPE:            DIIS
 INTERPOLATION STEPS:              2 (START)      1 (STEP)
 LEVEL SHIFTS:                  0.00 (CLOSED)  0.00 (OPEN) 



 Orbital guess generated from atomic densities. Full valence occupancy:   14

 Molecular orbital dump at record        2100.2

 Initial occupancy:  14

 ITERATION    DDIFF          GRAD             ENERGY        2-EL.EN.            DIPOLE MOMENTS         DIIS   ORB.
    1      0.000D+00      0.000D+00      -153.64593215    279.890701    0.00000    0.00000    0.00000    0    start
    2      0.000D+00      0.547D-02      -153.68223808    277.062621    0.00000    0.00000    0.00000    1    diag
    3      0.944D-02      0.218D-02      -153.68665280    278.011364    0.00000   -0.00000    0.00000    2    diag
    4      0.361D-02      0.834D-03      -153.68753595    277.866480   -0.00000   -0.00000    0.00000    3    diag
    5      0.163D-02      0.268D-03      -153.68760898    277.833313   -0.00000   -0.00000    0.00000    4    diag
    6      0.448D-03      0.423D-04      -153.68761358    277.835501   -0.00000   -0.00000    0.00000    5    diag
    7      0.111D-03      0.146D-04      -153.68761396    277.835410   -0.00000   -0.00000   -0.00000    6    diag
    8      0.304D-04      0.255D-05      -153.68761397    277.835274   -0.00000   -0.00000    0.00000    7    diag
    9      0.667D-05      0.463D-06      -153.68761397    277.835252    0.00000   -0.00000   -0.00000    8    diag
   10      0.100D-05      0.960D-07      -153.68761397    277.835257   -0.00000    0.00000    0.00000    9    orth
   11      0.258D-06      0.121D-07      -153.68761397    277.835257    0.00000   -0.00000   -0.00000    0    orth

 Final occupancy:  14

 !RHF STATE 1.1 Energy               -153.687613974727
 Nuclear energy                        88.64313511
 One-electron energy                 -381.24837769
 Two-electron energy                  138.91762860
 Virial quotient                       -1.00108825
 !RHF STATE 1.1 Dipole moment           0.00000000    -0.00000000    -0.00000000
 Dipole moment /Debye                   0.00000000    -0.00000000    -0.00000000

 Orbital energies:

         1.1          2.1          3.1          4.1          5.1          6.1          7.1          8.1          9.1         10.1
    -11.258765   -11.256469   -11.249848   -11.249824    -1.083071    -1.004989    -0.890700    -0.685956    -0.642033    -0.622266

        11.1         12.1         13.1         14.1         15.1         16.1
     -0.602970    -0.465097    -0.370392    -0.324180     0.086617     0.185044

 HOMO     14.1    -0.324180 =      -8.8214eV
 LUMO     15.1     0.086617 =       2.3570eV
 LUMO-HOMO         0.410797 =      11.1784eV


 **********************************************************************************************************************************
 DATASETS  * FILE   NREC   LENGTH (MB)   RECORD NAMES
              1      19       22.58       500      610      700      900      950      970     1000      129      960     1100   
                                          VAR    BASINP    GEOM    SYMINP    ZMAT    AOBASIS   BASIS     P2S    ABASIS      S 
                                         1400     1410     1200     1210     1080     1600     1650     1300     1700   
                                           T        V       H0       H01     AOSYM     SMH    MOLCAS    ERIS     OPER   

              2       4        2.95       700     1000      520     2100   
                                         GEOM     BASIS   MCVARS     RHF  

 PROGRAMS   *        TOTAL        HF       INT
 CPU TIMES  *         1.12      0.34      0.60
 REAL TIME  *         1.28 SEC
 DISK USED  *        36.56 MB      
 **********************************************************************************************************************************

1PROGRAM * MULTI (Direct Multiconfiguration SCF)       Authors: P.J. Knowles, H.-J. Werner (1984)     S.T. Elbert (1988)


 Number of closed-shell orbitals:  11 (  11 )
 Number of active  orbitals:        6 (   6 )
 Number of external orbitals:      47 (  47 )

 State symmetry 1

 Number of electrons:     6    Spin symmetry=Singlet   Space symmetry=1
 Number of states:        1
 Number of CSFs:        175   (400 determinants, 400 intermediate states)

 Molecular orbitals read from record     2100.2  Type=RHF/CANONICAL (state 1.1)

 Wavefunction dump at record             2141.2

 Convergence thresholds  0.10E-04 (gradient)  0.10E-07 (energy)  0.10E-02 (step length)

 Number of orbital rotations:      865   (    66 Core/Active    517 Core/Virtual   0 Active/Active    282 Active/Virtual)
 Total number of variables:       1265


 ITER. MIC  NCI  NEG     ENERGY(VAR)     ENERGY(PROJ)   ENERGY CHANGE     GRAD(0)  GRAD(ORB)   GRAD(CI)     STEP       TIME

   1   40   23    0    -153.71843878    -153.77731425   -0.05887547    0.05073945 0.00013747 0.00044425  0.10D+01      0.44
   2   27   38    0    -153.77960297    -153.78047067   -0.00086770    0.02696041 0.00000013 0.00000567  0.10D+00      0.98
   3   35   23    0    -153.78047309    -153.78047323   -0.00000014    0.00017723 0.00000001 0.00000022  0.23D-02      1.44
   4   25   10    0    -153.78047323    -153.78047323   -0.00000000    0.00000011 0.00000000 0.00000001  0.39D-06      1.70

 ** WVFN ****  CONVERGENCE REACHED, FINAL GRADIENT:  0.40D-08

 Solving MCSCF z-vector equations for state  1.1, requested accuracy=      0.10D-07
 Convergence reached in   1 iterations (  1 expansion vectors), accuracy=  0.65D-08

 SA-Gradient information saved on record      5101.1


 First order charge density matrix for state 1.1 saved on record  2141.2 (density set 1)

 Results for state 1.1
 =====================

 !MCSCF STATE 1.1 Energy             -153.780473230118
 Nuclear energy                        88.64313511
 Kinetic energy                       153.82694111
 One electron energy                 -381.47280108
 Two electron energy                  139.04919274
 Virial ratio                           1.99969792

 !MCSCF STATE 1.1 Dipole moment        -0.00000000     0.00000000    -0.00000000
 Dipole moment /Debye                  -0.00000000     0.00000000    -0.00000000


 NATURAL ORBITALS
 ================

   Orb     Occ        Energy       Coefficients

                                   1 1s      1 1s      1 1s      1 2px     1 2py     1 2pz     1 2px     1 2py     1 2pz     1 3d0  
                                   1 3d2-    1 3d1+    1 3d2+    1 3d1-    2 1s      2 1s      2 1s      2 2px     2 2py     2 2pz  
                                   2 2px     2 2py     2 2pz     2 3d0     2 3d2-    2 3d1+    2 3d2+    2 3d1-    3 1s      3 1s   
                                   3 1s      3 2px     3 2py     3 2pz     3 2px     3 2py     3 2pz     3 3d0     3 3d2-    3 3d1+ 
                                   3 3d2+    3 3d1-    4 1s      4 1s      4 1s      4 2px     4 2py     4 2pz     4 2px     4 2py  
                                   4 2pz     4 3d0     4 3d2-    4 3d1+    4 3d2+    4 3d1-    5 1s      5 1s      6 1s      6 1s   
                                   7 1s      7 1s      8 1s      8 1s   

   1.1  2.00000   -11.236751     0.695959  0.017015 -0.009691 -0.000000  0.000000 -0.000287 -0.000000  0.000000  0.000527  0.000341
                                 0.000000 -0.000000 -0.000205  0.000000  0.107943  0.001833  0.002551  0.000000 -0.000000 -0.000370
                                 0.000000 -0.000000  0.001474 -0.000129 -0.000000 -0.000000  0.000070  0.000000  0.107943  0.001833
                                 0.002551 -0.000000 -0.000000  0.000370 -0.000000 -0.000000 -0.001474 -0.000129  0.000000  0.000000
                                 0.000070 -0.000000  0.695960  0.017015 -0.009691  0.000000  0.000000  0.000287  0.000000  0.000000
                                -0.000527  0.000341 -0.000000 -0.000000 -0.000205 -0.000000 -0.000228  0.001900 -0.000228  0.001900
                                -0.000228  0.001900 -0.000228  0.001900

   2.1  2.00000   -11.236724     0.700169  0.017192 -0.003945  0.000000  0.000000 -0.000504  0.000000 -0.000000 -0.001628  0.000343
                                 0.000000 -0.000000 -0.000236 -0.000000  0.076134  0.000985  0.011431 -0.000000 -0.000000 -0.000498
                                -0.000000  0.000000 -0.009863 -0.000019 -0.000000  0.000000  0.000090 -0.000000 -0.076134 -0.000985
                                -0.011431 -0.000000  0.000000 -0.000498 -0.000000 -0.000000 -0.009863  0.000019 -0.000000 -0.000000
                                -0.000090 -0.000000 -0.700169 -0.017192  0.003945  0.000000 -0.000000 -0.000504  0.000000  0.000000
                                -0.001628 -0.000343  0.000000  0.000000  0.000236 -0.000000  0.000307 -0.001954  0.000307 -0.001954
                                -0.000307  0.001954 -0.000307  0.001954

   3.1  2.00000   -11.231675    -0.108322 -0.003574  0.003016 -0.000000  0.000000  0.000985 -0.000000  0.000000 -0.000980 -0.000589
                                -0.000000  0.000000  0.000067  0.000000  0.695611  0.015850 -0.005117 -0.000000 -0.000000  0.000789
                                 0.000000 -0.000000 -0.000942  0.001222 -0.000000  0.000000 -0.000057  0.000000  0.695611  0.015850
                                -0.005117 -0.000000 -0.000000 -0.000789 -0.000000 -0.000000  0.000942  0.001222  0.000000  0.000000
                                -0.000057 -0.000000 -0.108322 -0.003574  0.003016 -0.000000  0.000000 -0.000985 -0.000000  0.000000
                                 0.000980 -0.000589 -0.000000 -0.000000  0.000067 -0.000000 -0.000045 -0.000043 -0.000045 -0.000043
                                -0.000045 -0.000043 -0.000045 -0.000043

   4.1  2.00000   -11.229380    -0.076524 -0.003094  0.002498 -0.000000  0.000000  0.001090 -0.000000 -0.000000 -0.001107 -0.000721
                                -0.000000  0.000000  0.000028  0.000000  0.700423  0.018967 -0.013639 -0.000000 -0.000000 -0.001312
                                -0.000000  0.000000  0.003265  0.002363 -0.000000 -0.000000  0.000014 -0.000000 -0.700423 -0.018967
                                 0.013639 -0.000000  0.000000 -0.001312 -0.000000  0.000000  0.003265 -0.002363 -0.000000 -0.000000
                                -0.000014 -0.000000  0.076524  0.003094 -0.002498  0.000000 -0.000000  0.001090  0.000000  0.000000
                                -0.001107  0.000721  0.000000 -0.000000 -0.000028  0.000000  0.000116 -0.000032  0.000116 -0.000032
                                -0.000116  0.000032 -0.000116  0.000032

   5.1  2.00000    -1.071903    -0.090352  0.173948  0.129306 -0.000000 -0.000000 -0.070758  0.000000  0.000000 -0.003916  0.008885
                                 0.000000  0.000000 -0.005596  0.000000 -0.145441  0.277249  0.176949 -0.000000 -0.000000 -0.032681
                                -0.000000 -0.000000 -0.001443  0.021663 -0.000000  0.000000 -0.000442  0.000000 -0.145441  0.277249
                                 0.176949 -0.000000 -0.000000  0.032681 -0.000000 -0.000000  0.001443  0.021663  0.000000  0.000000
                                -0.000442 -0.000000 -0.090352  0.173948  0.129306 -0.000000 -0.000000  0.070758 -0.000000  0.000000
                                 0.003916  0.008885 -0.000000 -0.000000 -0.005596 -0.000000  0.044774  0.004857  0.044774  0.004857
                                 0.044774  0.004857  0.044774  0.004857

   6.1  2.00000    -0.997329    -0.133110  0.254656  0.242693  0.000000  0.000000 -0.063998  0.000000  0.000000 -0.014787  0.009343
                                 0.000000 -0.000000 -0.010551  0.000000 -0.079540  0.152915  0.145924  0.000000 -0.000000  0.144497
                                 0.000000 -0.000000 -0.035993  0.014679 -0.000000 -0.000000  0.001526 -0.000000  0.079540 -0.152915
                                -0.145924  0.000000  0.000000  0.144497  0.000000  0.000000 -0.035993 -0.014679  0.000000 -0.000000
                                -0.001526 -0.000000  0.133110 -0.254656 -0.242693  0.000000  0.000000 -0.063998  0.000000 -0.000000
                                -0.014787 -0.009343  0.000000  0.000000  0.010551  0.000000 -0.078481 -0.016507 -0.078481 -0.016507
                                 0.078481  0.016507  0.078481  0.016507

   7.1  2.00000    -0.879784    -0.107291  0.205902  0.240090  0.000000  0.000000  0.030933  0.000000 -0.000000 -0.003584  0.002972
                                 0.000000 -0.000000 -0.012846 -0.000000  0.080650 -0.148124 -0.164849  0.000000  0.000000  0.270728
                                 0.000000  0.000000  0.007889 -0.009478  0.000000  0.000000  0.002052 -0.000000  0.080650 -0.148124
                                -0.164849  0.000000  0.000000 -0.270728  0.000000  0.000000 -0.007889 -0.009478 -0.000000  0.000000
                                 0.002052  0.000000 -0.107291  0.205902  0.240090 -0.000000  0.000000 -0.030933 -0.000000 -0.000000
                                 0.003584  0.002972 -0.000000  0.000000 -0.012846  0.000000  0.090149  0.032559  0.090149  0.032559
                                 0.090149  0.032559  0.090149  0.032559

   8.1  2.00000    -0.678960    -0.038002  0.079217  0.027133  0.000000  0.000000  0.297241  0.000000  0.000000  0.142527 -0.013520
                                 0.000000  0.000000 -0.016305 -0.000000  0.081635 -0.159379 -0.258389 -0.000000  0.000000 -0.143161
                                -0.000000  0.000000  0.114422 -0.009537  0.000000  0.000000 -0.001045  0.000000 -0.081635  0.159379
                                 0.258389 -0.000000 -0.000000 -0.143161 -0.000000 -0.000000  0.114422  0.009537  0.000000  0.000000
                                 0.001045  0.000000  0.038002 -0.079217 -0.027133 -0.000000 -0.000000  0.297241 -0.000000 -0.000000
                                 0.142527  0.013520 -0.000000 -0.000000  0.016305 -0.000000 -0.126287 -0.075167 -0.126287 -0.075167
                                 0.126287  0.075167  0.126287  0.075167

   9.1  2.00000    -0.632845    -0.010734  0.027431 -0.011511 -0.000000 -0.000000  0.308635 -0.000000 -0.000000  0.149358 -0.015529
                                 0.000000  0.000000 -0.013564 -0.000000  0.015384 -0.038237  0.033337 -0.000000 -0.000000 -0.308893
                                -0.000000 -0.000000 -0.022395  0.000027  0.000000 -0.000000 -0.001276  0.000000  0.015384 -0.038237
                                 0.033337  0.000000 -0.000000  0.308893  0.000000 -0.000000  0.022395  0.000027  0.000000 -0.000000
                                -0.001276 -0.000000 -0.010734  0.027431 -0.011511  0.000000 -0.000000 -0.308635  0.000000 -0.000000
                                -0.149358 -0.015529  0.000000  0.000000 -0.013564  0.000000  0.109720  0.072280  0.109720  0.072280
                                 0.109720  0.072280  0.109720  0.072280

  10.1  2.00000    -0.597894    -0.000000  0.000000  0.000000  0.000000  0.315234 -0.000000  0.000000  0.166808 -0.000000 -0.000000
                                 0.000000 -0.000000 -0.000000  0.020619 -0.000000  0.000000 -0.000000  0.000000  0.055761  0.000000
                                 0.000000 -0.007801 -0.000000  0.000000  0.000000  0.000000  0.000000  0.012370  0.000000 -0.000000
                                 0.000000  0.000000 -0.055761  0.000000  0.000000  0.007801 -0.000000 -0.000000 -0.000000 -0.000000
                                -0.000000  0.012370  0.000000 -0.000000 -0.000000 -0.000000 -0.315234 -0.000000  0.000000 -0.166808
                                -0.000000  0.000000 -0.000000  0.000000  0.000000  0.020619 -0.166955 -0.112635  0.166955  0.112635
                                 0.166955  0.112635 -0.166955 -0.112635

  11.1  2.00000    -0.592703     0.000000 -0.000000 -0.000000  0.000000  0.316283  0.000000  0.000000  0.154387  0.000000 -0.000000
                                 0.000000 -0.000000 -0.000000  0.023050 -0.000000  0.000000  0.000000  0.000000  0.023223 -0.000000
                                 0.000000 -0.029043 -0.000000  0.000000 -0.000000  0.000000 -0.000000  0.008985 -0.000000  0.000000
                                 0.000000  0.000000  0.023223  0.000000 -0.000000 -0.029043  0.000000  0.000000  0.000000  0.000000
                                -0.000000 -0.008985  0.000000 -0.000000 -0.000000 -0.000000  0.316283 -0.000000  0.000000  0.154387
                                -0.000000 -0.000000  0.000000 -0.000000 -0.000000 -0.023050  0.173513  0.130558 -0.173513 -0.130558
                                 0.173513  0.130558 -0.173513 -0.130558

  12.1  1.94022    -0.449505     0.000000 -0.000000 -0.000000  0.209328 -0.000000  0.000000  0.139708 -0.000000 -0.000000  0.000000
                                 0.000000 -0.017209 -0.000000 -0.000000 -0.000000  0.000000 -0.000000  0.337789  0.000000 -0.000000
                                 0.190185  0.000000  0.000000  0.000000  0.000000 -0.003862 -0.000000 -0.000000 -0.000000  0.000000
                                 0.000000  0.337789  0.000000 -0.000000  0.190185  0.000000  0.000000  0.000000  0.000000  0.003862
                                 0.000000  0.000000 -0.000000  0.000000  0.000000  0.209328  0.000000  0.000000  0.139708 -0.000000
                                -0.000000 -0.000000  0.000000  0.017209  0.000000  0.000000 -0.000000 -0.000000  0.000000  0.000000
                                -0.000000  0.000000  0.000000  0.000000

  13.1  1.93415    -0.375560     0.000000 -0.000000 -0.000000 -0.000000 -0.007916  0.000000 -0.000000 -0.035904  0.000000  0.000000
                                -0.000000  0.000000  0.000000 -0.022226 -0.000000  0.000000  0.000000 -0.000000  0.411868 -0.000000
                                -0.000000  0.277923  0.000000  0.000000 -0.000000 -0.000000 -0.000000 -0.025734 -0.000000  0.000000
                                 0.000000 -0.000000  0.411868  0.000000  0.000000  0.277923 -0.000000  0.000000  0.000000 -0.000000
                                -0.000000  0.025734  0.000000 -0.000000 -0.000000 -0.000000 -0.007916  0.000000 -0.000000 -0.035904
                                -0.000000  0.000000 -0.000000  0.000000 -0.000000  0.022226 -0.042071 -0.066498  0.042071  0.066498
                                -0.042071 -0.066498  0.042071  0.066498

  14.1  1.83811    -0.296608     0.000000 -0.000000 -0.000000  0.341191 -0.000000 -0.000000  0.282432  0.000000 -0.000000 -0.000000
                                -0.000000 -0.013949  0.000000 -0.000000 -0.000000  0.000000  0.000000  0.212837  0.000000 -0.000000
                                 0.163954  0.000000 -0.000000  0.000000  0.000000  0.027585 -0.000000 -0.000000  0.000000 -0.000000
                                -0.000000 -0.212837  0.000000  0.000000 -0.163954  0.000000 -0.000000 -0.000000 -0.000000  0.027585
                                -0.000000  0.000000  0.000000 -0.000000 -0.000000 -0.341191  0.000000 -0.000000 -0.282432  0.000000
                                -0.000000  0.000000 -0.000000 -0.013949 -0.000000  0.000000 -0.000000 -0.000000  0.000000  0.000000
                                -0.000000 -0.000000  0.000000  0.000000

  15.1  0.16931     0.095206     0.000000 -0.000000 -0.000000  0.439100  0.000000  0.000000  0.318645  0.000000  0.000000  0.000000
                                -0.000000  0.000850 -0.000000 -0.000000 -0.000000  0.000000  0.000000 -0.282479 -0.000000  0.000000
                                -0.196975  0.000000  0.000000  0.000000 -0.000000  0.027952 -0.000000  0.000000  0.000000 -0.000000
                                -0.000000 -0.282479  0.000000  0.000000 -0.196975 -0.000000  0.000000  0.000000 -0.000000 -0.027952
                                -0.000000  0.000000 -0.000000  0.000000  0.000000  0.439100 -0.000000  0.000000  0.318645 -0.000000
                                 0.000000  0.000000  0.000000 -0.000850 -0.000000 -0.000000  0.000000  0.000000 -0.000000 -0.000000
                                -0.000000 -0.000000  0.000000  0.000000

  16.1  0.06588     0.291749     0.000000 -0.000000  0.000000 -0.000000 -0.037520  0.000000 -0.000000 -0.099977 -0.000000 -0.000000
                                 0.000000  0.000000  0.000000 -0.024895 -0.000000  0.000000  0.000000  0.000000  0.628149 -0.000000
                                 0.000000  0.370515 -0.000000 -0.000000  0.000000 -0.000000 -0.000000  0.004452  0.000000 -0.000000
                                -0.000000 -0.000000 -0.628149 -0.000000  0.000000 -0.370515 -0.000000  0.000000 -0.000000  0.000000
                                 0.000000  0.004452 -0.000000  0.000000 -0.000000 -0.000000  0.037520  0.000000 -0.000000  0.099977
                                 0.000000  0.000000  0.000000 -0.000000 -0.000000 -0.024895  0.058985  0.053525 -0.058985 -0.053525
                                -0.058985 -0.053525  0.058985  0.053525

  17.1  0.05232     0.415044     0.000000 -0.000000 -0.000000  0.331452 -0.000000 -0.000000  0.253176  0.000000  0.000000  0.000000
                                -0.000000  0.015549 -0.000000 -0.000000  0.000000 -0.000000 -0.000000 -0.573567 -0.000000  0.000000
                                -0.407515 -0.000000  0.000000  0.000000 -0.000000 -0.019432 -0.000000  0.000000 -0.000000  0.000000
                                 0.000000  0.573567 -0.000000 -0.000000  0.407515 -0.000000  0.000000 -0.000000  0.000000 -0.019432
                                 0.000000 -0.000000  0.000000 -0.000000 -0.000000 -0.331452  0.000000 -0.000000 -0.253176  0.000000
                                -0.000000  0.000000  0.000000  0.015549 -0.000000  0.000000 -0.000000 -0.000000  0.000000  0.000000
                                -0.000000 -0.000000  0.000000  0.000000

  18.1  0.00000     0.277101    -0.094788  0.112818  1.586402  0.000000  0.000000  0.092965  0.000000  0.000000  0.459319  0.001832
                                 0.000000 -0.000000 -0.000475 -0.000000  0.028313 -0.028748 -0.134660  0.000000  0.000000  0.010226
                                 0.000000  0.000000 -0.131011  0.009509  0.000000  0.000000  0.004726  0.000000 -0.028313  0.028748
                                 0.134660 -0.000000 -0.000000  0.010226 -0.000000 -0.000000 -0.131011 -0.009509  0.000000 -0.000000
                                -0.004726  0.000000  0.094788 -0.112818 -1.586402  0.000000 -0.000000  0.092965  0.000000 -0.000000
                                 0.459319 -0.001832  0.000000 -0.000000  0.000475 -0.000000  0.018178  1.054817  0.018178  1.054817
                                -0.018178 -1.054817 -0.018178 -1.054817

  19.1  0.00000     0.278998     0.088331 -0.099780 -1.460450 -0.000000 -0.000000 -0.117376 -0.000000 -0.000000 -0.570504 -0.002191
                                -0.000000 -0.000000 -0.000035 -0.000000 -0.003353 -0.062594  0.020874  0.000000  0.000000  0.064390
                                 0.000000  0.000000  0.005269 -0.006835 -0.000000  0.000000 -0.007096  0.000000 -0.003353 -0.062594
                                 0.020874 -0.000000 -0.000000 -0.064390 -0.000000 -0.000000 -0.005269 -0.006835  0.000000  0.000000
                                -0.007096  0.000000  0.088331 -0.099780 -1.460450  0.000000 -0.000000  0.117376  0.000000 -0.000000
                                 0.570504 -0.002191  0.000000 -0.000000 -0.000035 -0.000000  0.016866  1.075078  0.016866  1.075078
                                 0.016866  1.075078  0.016866  1.075078

  20.1  0.00000     0.342200     0.000000 -0.000000 -0.000000 -0.000000  0.274001 -0.000000 -0.000000  1.197577 -0.000000 -0.000000
                                 0.000000 -0.000000 -0.000000 -0.002061  0.000000 -0.000000 -0.000000  0.000000 -0.013541  0.000000
                                 0.000000 -0.266261  0.000000 -0.000000  0.000000  0.000000 -0.000000  0.016600  0.000000 -0.000000
                                -0.000000 -0.000000 -0.013541 -0.000000 -0.000000 -0.266261  0.000000  0.000000 -0.000000  0.000000
                                 0.000000 -0.016600  0.000000 -0.000000  0.000000  0.000000  0.274001  0.000000  0.000000  1.197577
                                 0.000000  0.000000 -0.000000 -0.000000 -0.000000  0.002061  0.009838 -1.296686 -0.009838  1.296686
                                 0.009838 -1.296686 -0.009838  1.296686

  21.1  0.00000     0.362693    -0.000000  0.000000  0.000000 -0.000000  0.267673 -0.000000 -0.000000  1.400773 -0.000000 -0.000000
                                 0.000000 -0.000000 -0.000000  0.010146  0.000000 -0.000000 -0.000000  0.000000 -0.057773  0.000000
                                 0.000000 -0.653416 -0.000000  0.000000 -0.000000  0.000000  0.000000  0.004063 -0.000000  0.000000
                                 0.000000  0.000000  0.057773  0.000000  0.000000  0.653416 -0.000000 -0.000000  0.000000 -0.000000
                                -0.000000  0.004063  0.000000 -0.000000 -0.000000 -0.000000 -0.267673 -0.000000 -0.000000 -1.400773
                                -0.000000  0.000000  0.000000  0.000000  0.000000  0.010146 -0.030966  1.409302  0.030966 -1.409302
                                 0.030966 -1.409302 -0.030966  1.409302

  22.1  0.00000     0.439271     0.064318  0.013137 -4.766061 -0.000000  0.000000  0.105111  0.000000  0.000000  3.245759  0.009281
                                -0.000000  0.000000  0.020641  0.000000 -0.086175  0.223541 -2.101662 -0.000000 -0.000000  0.007797
                                -0.000000 -0.000000  6.997037 -0.033127 -0.000000 -0.000000  0.003559 -0.000000  0.086175 -0.223541
                                 2.101662  0.000000  0.000000  0.007797  0.000000  0.000000  6.997037  0.033127 -0.000000 -0.000000
                                -0.003559 -0.000000 -0.064318 -0.013137  4.766061 -0.000000 -0.000000  0.105111 -0.000000 -0.000000
                                 3.245759 -0.009281 -0.000000  0.000000 -0.020641  0.000000  0.040557  0.391700  0.040557  0.391700
                                -0.040557 -0.391700 -0.040557 -0.391700

  23.1  0.00000     0.493066     0.064632  0.068726 -2.977253 -0.000000 -0.000000 -0.044768 -0.000000 -0.000000  2.635861  0.009018
                                -0.000000 -0.000000  0.022643 -0.000000 -0.047063  0.019432  3.727947  0.000000 -0.000000  0.214841
                                 0.000000  0.000000  2.253176  0.009726 -0.000000  0.000000  0.003616  0.000000 -0.047063  0.019432
                                 3.727947 -0.000000 -0.000000 -0.214841 -0.000000 -0.000000 -2.253176  0.009726  0.000000  0.000000
                                 0.003616  0.000000  0.064632  0.068726 -2.977253  0.000000  0.000000  0.044768  0.000000  0.000000
                                -2.635861  0.009018  0.000000 -0.000000  0.022643 -0.000000 -0.073288 -0.300591 -0.073288 -0.300591
                                -0.073288 -0.300591 -0.073288 -0.300591

  24.1  0.00000     0.562705    -0.009348  0.327440 -3.953042  0.000000 -0.000000 -0.390335 -0.000000 -0.000000  1.959883 -0.010903
                                 0.000000 -0.000000  0.008262 -0.000000  0.109904  0.089890 -5.440721  0.000000  0.000000  0.237511
                                 0.000000  0.000000  6.717181  0.056834  0.000000  0.000000 -0.000995  0.000000 -0.109904 -0.089890
                                 5.440721 -0.000000 -0.000000  0.237511 -0.000000 -0.000000  6.717181 -0.056834  0.000000  0.000000
                                 0.000995  0.000000  0.009348 -0.327440  3.953042  0.000000  0.000000 -0.390335  0.000000  0.000000
                                 1.959883  0.010903  0.000000 -0.000000 -0.008262 -0.000000  0.026774 -0.063740  0.026774 -0.063740
                                -0.026774  0.063740 -0.026774  0.063740

  25.1  0.00000     0.623833    -0.007201  0.297132 -0.549605 -0.000000 -0.000000 -0.362639  0.000000  0.000000  0.278358 -0.002715
                                -0.000000  0.000000 -0.005778  0.000000  0.008359  0.782102 -0.493624 -0.000000 -0.000000 -0.223223
                                -0.000000  0.000000  0.322697  0.068138  0.000000 -0.000000 -0.001161  0.000000  0.008359  0.782102
                                -0.493624  0.000000 -0.000000  0.223223  0.000000  0.000000 -0.322697  0.068138 -0.000000 -0.000000
                                -0.001161 -0.000000 -0.007201  0.297132 -0.549605 -0.000000 -0.000000  0.362639 -0.000000  0.000000
                                -0.278358 -0.002715  0.000000  0.000000 -0.005778 -0.000000  0.014556  0.145358  0.014556  0.145358
                                 0.014556  0.145358  0.014556  0.145358

  26.1  0.00000     0.737770     0.000000 -0.000000 -0.000000 -0.502424  0.000000  0.000000  0.464075  0.000000  0.000000 -0.000000
                                -0.000000  0.040179  0.000000  0.000000 -0.000000 -0.000000 -0.000000 -0.515532 -0.000000 -0.000000
                                 0.380187 -0.000000  0.000000 -0.000000  0.000000 -0.004917  0.000000  0.000000  0.000000  0.000000
                                 0.000000 -0.515532 -0.000000 -0.000000  0.380187  0.000000  0.000000  0.000000  0.000000  0.004917
                                 0.000000 -0.000000 -0.000000  0.000000  0.000000 -0.502424 -0.000000 -0.000000  0.464075  0.000000
                                 0.000000  0.000000  0.000000 -0.040179 -0.000000  0.000000 -0.000000 -0.000000  0.000000  0.000000
                                 0.000000 -0.000000 -0.000000  0.000000

  27.1  0.00000     0.756690     0.000000 -0.000000 -0.000000  0.000000 -0.186783  0.000000 -0.000000  0.516290  0.000000 -0.000000
                                 0.000000 -0.000000  0.000000 -0.001949 -0.000000 -0.000000  0.000000  0.000000 -0.652680  0.000000
                                 0.000000  0.495442  0.000000 -0.000000  0.000000  0.000000  0.000000  0.059680 -0.000000 -0.000000
                                 0.000000  0.000000 -0.652680 -0.000000 -0.000000  0.495442  0.000000 -0.000000  0.000000  0.000000
                                 0.000000 -0.059680  0.000000 -0.000000  0.000000 -0.000000 -0.186783 -0.000000  0.000000  0.516290
                                 0.000000  0.000000 -0.000000 -0.000000  0.000000  0.001949 -0.140635 -0.251451  0.140635  0.251451
                                -0.140635 -0.251451  0.140635  0.251451

  28.1  0.00000     0.781604    -0.000000  0.000000 -0.000000 -0.714042 -0.000000 -0.000000  0.928158  0.000000  0.000000 -0.000000
                                 0.000000  0.029721  0.000000  0.000000  0.000000 -0.000000  0.000000 -0.103869 -0.000000  0.000000
                                -0.297869  0.000000  0.000000  0.000000  0.000000 -0.057874  0.000000  0.000000 -0.000000 -0.000000
                                 0.000000  0.103869 -0.000000  0.000000  0.297869  0.000000 -0.000000 -0.000000 -0.000000 -0.057874
                                 0.000000 -0.000000  0.000000 -0.000000 -0.000000  0.714042 -0.000000  0.000000 -0.928158  0.000000
                                -0.000000 -0.000000 -0.000000  0.029721  0.000000 -0.000000 -0.000000 -0.000000  0.000000  0.000000
                                -0.000000 -0.000000  0.000000  0.000000

  29.1  0.00000     0.850448     0.000000  0.000000  0.000000 -0.000000  0.246668 -0.000000  0.000000 -0.632001 -0.000000  0.000000
                                -0.000000  0.000000 -0.000000  0.026388 -0.000000  0.000000  0.000000  0.000000  0.559009  0.000000
                                -0.000000 -0.892511 -0.000000  0.000000 -0.000000 -0.000000 -0.000000  0.034350  0.000000 -0.000000
                                -0.000000  0.000000 -0.559009  0.000000 -0.000000  0.892511 -0.000000 -0.000000 -0.000000  0.000000
                                 0.000000  0.034350 -0.000000 -0.000000 -0.000000 -0.000000 -0.246668 -0.000000  0.000000  0.632001
                                -0.000000 -0.000000 -0.000000 -0.000000  0.000000  0.026388 -0.212592 -0.306737  0.212592  0.306737
                                 0.212592  0.306737 -0.212592 -0.306737

  30.1  0.00000     0.865903    -0.000000 -0.000000 -0.000000 -0.496204 -0.000000 -0.000000  0.860178  0.000000  0.000000 -0.000000
                                 0.000000  0.001543  0.000000 -0.000000  0.000000 -0.000000 -0.000000  0.487739 -0.000000 -0.000000
                                -0.709704  0.000000  0.000000 -0.000000  0.000000 -0.071105  0.000000 -0.000000 -0.000000  0.000000
                                 0.000000  0.487739  0.000000 -0.000000 -0.709704 -0.000000  0.000000  0.000000  0.000000  0.071105
                                -0.000000 -0.000000  0.000000  0.000000  0.000000 -0.496204  0.000000 -0.000000  0.860178 -0.000000
                                 0.000000  0.000000  0.000000 -0.001543 -0.000000 -0.000000  0.000000  0.000000 -0.000000 -0.000000
                                -0.000000 -0.000000  0.000000  0.000000

  31.1  0.00000     0.868473    -0.044742 -0.535982 -0.800874  0.000000  0.000000 -0.073475 -0.000000 -0.000000  1.006680 -0.073528
                                 0.000000 -0.000000  0.088784  0.000000  0.045746 -0.545271 -2.038533 -0.000000  0.000000 -0.263846
                                 0.000000 -0.000000  3.560252 -0.001205 -0.000000  0.000000  0.015477  0.000000 -0.045746  0.545271
                                 2.038533 -0.000000 -0.000000 -0.263846  0.000000  0.000000  3.560252  0.001205 -0.000000 -0.000000
                                -0.015477  0.000000  0.044742  0.535982  0.800874  0.000000 -0.000000 -0.073475 -0.000000  0.000000
                                 1.006680  0.073528  0.000000  0.000000 -0.088784  0.000000  0.348936  0.172516  0.348936  0.172516
                                -0.348936 -0.172516 -0.348936 -0.172516

  32.1  0.00000     0.889284    -0.052023 -0.497564  0.613199  0.000000 -0.000000 -0.222554  0.000000  0.000000  0.552956 -0.081208
                                 0.000000  0.000000  0.095666 -0.000000  0.030933 -0.334239  0.661216  0.000000 -0.000000 -0.370827
                                -0.000000  0.000000  0.675278  0.039020 -0.000000  0.000000  0.020388 -0.000000  0.030933 -0.334239
                                 0.661216 -0.000000  0.000000  0.370827  0.000000 -0.000000 -0.675278  0.039020 -0.000000  0.000000
                                 0.020388 -0.000000 -0.052023 -0.497564  0.613199 -0.000000  0.000000  0.222554  0.000000 -0.000000
                                -0.552956 -0.081208 -0.000000  0.000000  0.095666  0.000000 -0.377573 -0.150959 -0.377573 -0.150959
                                -0.377573 -0.150959 -0.377573 -0.150959

  33.1  0.00000     0.981238    -0.000000 -0.000000  0.000000  0.030647 -0.000000  0.000000 -0.718386  0.000000 -0.000000 -0.000000
                                -0.000000 -0.010993  0.000000 -0.000000 -0.000000  0.000000  0.000000 -0.685678  0.000000 -0.000000
                                 1.938538 -0.000000 -0.000000  0.000000 -0.000000 -0.029707  0.000000  0.000000  0.000000 -0.000000
                                -0.000000  0.685678  0.000000  0.000000 -1.938538 -0.000000 -0.000000  0.000000  0.000000 -0.029707
                                 0.000000 -0.000000 -0.000000 -0.000000  0.000000 -0.030647 -0.000000  0.000000  0.718386  0.000000
                                -0.000000 -0.000000  0.000000 -0.010993  0.000000  0.000000 -0.000000 -0.000000  0.000000  0.000000
                                -0.000000 -0.000000  0.000000  0.000000

  34.1  0.00000     0.988681    -0.000000  0.000000  0.000000 -0.000000 -0.338534 -0.000000  0.000000  1.429724 -0.000000  0.000000
                                 0.000000  0.000000  0.000000 -0.142042  0.000000  0.000000 -0.000000  0.000000  0.301078  0.000000
                                -0.000000 -0.678225 -0.000000 -0.000000  0.000000  0.000000 -0.000000  0.063239  0.000000 -0.000000
                                -0.000000 -0.000000  0.301078 -0.000000  0.000000 -0.678225  0.000000  0.000000 -0.000000  0.000000
                                -0.000000 -0.063239 -0.000000  0.000000  0.000000  0.000000 -0.338534  0.000000 -0.000000  1.429724
                                 0.000000 -0.000000 -0.000000  0.000000  0.000000  0.142042 -0.382652 -0.315361  0.382652  0.315361
                                -0.382652 -0.315361  0.382652  0.315361

  35.1  0.00000     1.136493     0.000000  0.000000 -0.000000 -0.000000  0.809710  0.000000 -0.000000 -1.959354  0.000000  0.000000
                                 0.000000 -0.000000 -0.000000 -0.099236 -0.000000 -0.000000  0.000000  0.000000 -0.194322  0.000000
                                 0.000000  1.024774  0.000000 -0.000000  0.000000  0.000000  0.000000  0.068094  0.000000  0.000000
                                -0.000000  0.000000  0.194322  0.000000 -0.000000 -1.024774  0.000000  0.000000  0.000000 -0.000000
                                -0.000000  0.068094 -0.000000  0.000000  0.000000 -0.000000 -0.809710  0.000000  0.000000  1.959354
                                 0.000000 -0.000000  0.000000  0.000000  0.000000 -0.099236  0.315512 -1.255927 -0.315512  1.255927
                                -0.315512  1.255927  0.315512 -1.255927

  36.1  0.00000     1.153388    -0.000000  0.000000 -0.000000 -0.000000  0.756666  0.000000  0.000000 -1.528975 -0.000000  0.000000
                                 0.000000 -0.000000  0.000000 -0.123698 -0.000000 -0.000000  0.000000  0.000000 -0.087116  0.000000
                                -0.000000  0.319647  0.000000  0.000000  0.000000  0.000000 -0.000000  0.118333 -0.000000 -0.000000
                                 0.000000 -0.000000 -0.087116 -0.000000  0.000000  0.319647 -0.000000  0.000000 -0.000000  0.000000
                                 0.000000 -0.118333 -0.000000  0.000000 -0.000000  0.000000  0.756666 -0.000000 -0.000000 -1.528975
                                 0.000000  0.000000 -0.000000 -0.000000  0.000000  0.123698 -0.367249  1.146682  0.367249 -1.146682
                                -0.367249  1.146682  0.367249 -1.146682

  37.1  0.00000     1.200813    -0.008904  0.256137 -0.846140  0.000000 -0.000000  0.683892  0.000000  0.000000 -0.798258  0.088030
                                -0.000000  0.000000  0.095192  0.000000 -0.019199  0.608259 -0.586769  0.000000  0.000000  0.065490
                                -0.000000 -0.000000  0.251307 -0.045707 -0.000000  0.000000 -0.005722 -0.000000 -0.019199  0.608259
                                -0.586769 -0.000000 -0.000000 -0.065490  0.000000 -0.000000 -0.251307 -0.045707 -0.000000 -0.000000
                                -0.005722  0.000000 -0.008904  0.256137 -0.846140  0.000000  0.000000 -0.683892 -0.000000  0.000000
                                 0.798258  0.088030 -0.000000  0.000000  0.095192 -0.000000 -0.368845  0.700889 -0.368845  0.700889
                                -0.368845  0.700889 -0.368845  0.700889

  38.1  0.00000     1.210040    -0.026217  0.956755 -2.361591  0.000000 -0.000000  0.497512  0.000000  0.000000 -0.407883  0.062555
                                 0.000000  0.000000  0.092200  0.000000  0.004529  0.115894 -1.013045 -0.000000  0.000000  0.106958
                                 0.000000 -0.000000  1.086322 -0.011601  0.000000  0.000000 -0.007616 -0.000000 -0.004529 -0.115894
                                 1.013045 -0.000000 -0.000000  0.106958 -0.000000  0.000000  1.086322  0.011601  0.000000 -0.000000
                                 0.007616 -0.000000  0.026217 -0.956755  2.361591  0.000000  0.000000  0.497512  0.000000 -0.000000
                                -0.407883 -0.062555  0.000000 -0.000000 -0.092200  0.000000  0.413661 -0.932151  0.413661 -0.932151
                                -0.413661  0.932151 -0.413661  0.932151

  39.1  0.00000     1.225753    -0.035409  1.260649 -1.862950  0.000000 -0.000000 -0.143302 -0.000000  0.000000  0.073669 -0.021743
                                 0.000000  0.000000  0.033473  0.000000  0.025931 -0.563883  0.605742 -0.000000  0.000000  0.017748
                                 0.000000  0.000000 -0.332858  0.060529  0.000000 -0.000000 -0.019011 -0.000000  0.025931 -0.563883
                                 0.605742  0.000000  0.000000 -0.017748 -0.000000  0.000000  0.332858  0.060529  0.000000 -0.000000
                                -0.019011  0.000000 -0.035409  1.260649 -1.862950 -0.000000 -0.000000  0.143302  0.000000  0.000000
                                -0.073669 -0.021743 -0.000000  0.000000  0.033473 -0.000000 -0.224749  0.623382 -0.224749  0.623382
                                -0.224749  0.623382 -0.224749  0.623382

  40.1  0.00000     1.304900    -0.040007 -0.767817 10.766079  0.000000  0.000000 -0.229946 -0.000000  0.000000 -4.075796  0.087788
                                -0.000000  0.000000  0.142153 -0.000000 -0.030891  0.764981  7.903584 -0.000000 -0.000000  0.262558
                                 0.000000 -0.000000-15.720335  0.019800  0.000000 -0.000000  0.024315 -0.000000  0.030891 -0.764981
                                -7.903584  0.000000  0.000000  0.262558 -0.000000  0.000000-15.720335 -0.019800  0.000000  0.000000
                                -0.024315 -0.000000  0.040007  0.767817-10.766079 -0.000000 -0.000000 -0.229946  0.000000 -0.000000
                                -4.075796 -0.087788 -0.000000  0.000000 -0.142153 -0.000000  0.282808 -0.057111  0.282808 -0.057111
                                -0.282808  0.057111 -0.282808  0.057111

  41.1  0.00000     1.386281     0.000000 -0.000000  0.000000 -0.000000  0.225328  0.000000  0.000000 -2.385881 -0.000000  0.000000
                                -0.000000 -0.000000  0.000000  0.186209 -0.000000 -0.000000  0.000000  0.000000 -0.341353  0.000000
                                -0.000000  2.438732 -0.000000  0.000000 -0.000000  0.000000  0.000000 -0.065189  0.000000  0.000000
                                -0.000000 -0.000000  0.341353  0.000000  0.000000 -2.438732 -0.000000 -0.000000  0.000000 -0.000000
                                -0.000000 -0.065189 -0.000000  0.000000 -0.000000  0.000000 -0.225328  0.000000 -0.000000  2.385881
                                -0.000000 -0.000000 -0.000000  0.000000 -0.000000  0.186209 -0.485854 -0.680148  0.485854  0.680148
                                 0.485854  0.680148 -0.485854 -0.680148

  42.1  0.00000     1.457573     0.050588  0.655880 -7.083852 -0.000000 -0.000000  0.246237  0.000000  0.000000  2.918891 -0.110191
                                 0.000000 -0.000000 -0.148664 -0.000000 -0.019500 -0.419203  6.918456  0.000000 -0.000000 -0.605352
                                -0.000000 -0.000000  5.616972  0.073788 -0.000000 -0.000000 -0.048122  0.000000 -0.019500 -0.419203
                                 6.918456  0.000000  0.000000  0.605352  0.000000  0.000000 -5.616972  0.073788  0.000000  0.000000
                                -0.048122 -0.000000  0.050588  0.655880 -7.083852 -0.000000 -0.000000 -0.246237 -0.000000  0.000000
                                -2.918891 -0.110191 -0.000000 -0.000000 -0.148664  0.000000  0.188374 -0.040798  0.188374 -0.040798
                                 0.188374 -0.040798  0.188374 -0.040798

  43.1  0.00000     1.466295     0.025804 -0.659296  0.952067 -0.000000 -0.000000  0.457746  0.000000  0.000000 -0.430087  0.138226
                                -0.000000 -0.000000 -0.000768 -0.000000  0.023385 -0.540145  0.427410  0.000000  0.000000  0.857728
                                -0.000000 -0.000000 -0.647908  0.070205 -0.000000  0.000000  0.002370  0.000000 -0.023385  0.540145
                                -0.427410 -0.000000 -0.000000  0.857728  0.000000  0.000000 -0.647908 -0.070205 -0.000000  0.000000
                                -0.002370  0.000000 -0.025804  0.659296 -0.952067  0.000000  0.000000  0.457746 -0.000000 -0.000000
                                -0.430087 -0.138226 -0.000000 -0.000000  0.000768 -0.000000 -0.040634  0.109043 -0.040634  0.109043
                                 0.040634 -0.109043  0.040634 -0.109043

  44.1  0.00000     1.591647     0.000000  0.000000 -0.000000 -0.163549 -0.000000  0.000000  0.052820  0.000000 -0.000000  0.000000
                                 0.000000 -0.365119  0.000000 -0.000000 -0.000000  0.000000  0.000000  0.061452  0.000000 -0.000000
                                -0.029571 -0.000000 -0.000000 -0.000000  0.000000  0.441201  0.000000  0.000000  0.000000 -0.000000
                                 0.000000  0.061452 -0.000000 -0.000000 -0.029571  0.000000 -0.000000  0.000000  0.000000 -0.441201
                                 0.000000  0.000000 -0.000000  0.000000 -0.000000 -0.163549  0.000000  0.000000  0.052820 -0.000000
                                -0.000000 -0.000000 -0.000000  0.365119  0.000000 -0.000000  0.000000  0.000000 -0.000000 -0.000000
                                -0.000000 -0.000000  0.000000  0.000000

  45.1  0.00000     1.739408     0.000000 -0.000000 -0.000000  0.000000 -0.000000  0.000000  0.000000 -0.000000  0.000000  0.000000
                                 0.366783  0.000000 -0.000000 -0.000000  0.000000  0.000000 -0.000000 -0.000000  0.000000  0.000000
                                -0.000000  0.000000  0.000000 -0.000000  0.550283 -0.000000  0.000000  0.000000 -0.000000 -0.000000
                                 0.000000 -0.000000 -0.000000  0.000000 -0.000000 -0.000000  0.000000  0.000000  0.550283  0.000000
                                 0.000000  0.000000 -0.000000  0.000000  0.000000  0.000000  0.000000  0.000000  0.000000  0.000000
                                 0.000000 -0.000000  0.366783 -0.000000  0.000000 -0.000000 -0.000000  0.000000 -0.000000  0.000000
                                 0.000000 -0.000000  0.000000 -0.000000

  46.1  0.00000     1.806945     0.016704  0.189358 -1.248419  0.000000 -0.000000  0.034017  0.000000  0.000000  0.284893 -0.010742
                                -0.000000  0.000000  0.132710 -0.000000 -0.003877 -0.058054  0.920102 -0.000000  0.000000 -0.063172
                                -0.000000  0.000000  0.723158  0.012424 -0.000000  0.000000  0.649317 -0.000000 -0.003877 -0.058054
                                 0.920102 -0.000000  0.000000  0.063172 -0.000000  0.000000 -0.723158  0.012424 -0.000000 -0.000000
                                 0.649317  0.000000  0.016704  0.189358 -1.248419  0.000000  0.000000 -0.034017  0.000000  0.000000
                                -0.284893 -0.010742  0.000000 -0.000000  0.132710  0.000000  0.112142  0.099826  0.112142  0.099826
                                 0.112142  0.099826  0.112142  0.099826

  47.1  0.00000     1.865633     0.002007  0.464816 10.284277 -0.000000 -0.000000 -0.523789  0.000000 -0.000000 -3.663800  0.031153
                                 0.000000 -0.000000  0.120291 -0.000000 -0.086663 -1.331564 21.886503  0.000000  0.000000  0.198636
                                -0.000000  0.000000-23.245616  0.294963  0.000000  0.000000  0.046013  0.000000  0.086663  1.331564
                               -21.886503 -0.000000 -0.000000  0.198636  0.000000 -0.000000-23.245616 -0.294963  0.000000  0.000000
                                -0.046013  0.000000 -0.002007 -0.464816-10.284277  0.000000  0.000000 -0.523789  0.000000  0.000000
                                -3.663800 -0.031153  0.000000 -0.000000 -0.120291 -0.000000  0.043719 -0.123115  0.043719 -0.123115
                                -0.043719  0.123115 -0.043719  0.123115

  48.1  0.00000     1.872611     0.000000 -0.000000 -0.000000  0.000000  0.000000 -0.000000 -0.000000  0.000000 -0.000000  0.000000
                                 0.617791  0.000000  0.000000  0.000000 -0.000000  0.000000  0.000000 -0.000000 -0.000000  0.000000
                                 0.000000  0.000000 -0.000000  0.000000  0.312358 -0.000000  0.000000 -0.000000  0.000000  0.000000
                                -0.000000  0.000000  0.000000  0.000000 -0.000000  0.000000 -0.000000 -0.000000 -0.312358 -0.000000
                                 0.000000  0.000000  0.000000 -0.000000 -0.000000 -0.000000 -0.000000 -0.000000  0.000000  0.000000
                                 0.000000  0.000000 -0.617791  0.000000 -0.000000 -0.000000  0.000000 -0.000000  0.000000  0.000000
                                -0.000000 -0.000000  0.000000  0.000000

  49.1  0.00000     1.932381    -0.000000 -0.000000 -0.000000 -0.000000 -0.168098  0.000000  0.000000 -0.718356  0.000000  0.000000
                                -0.000000 -0.000000  0.000000 -0.171350  0.000000  0.000000 -0.000000  0.000000  0.098067  0.000000
                                -0.000000  0.246541  0.000000 -0.000000  0.000000  0.000000  0.000000  0.565574  0.000000 -0.000000
                                 0.000000 -0.000000  0.098067 -0.000000  0.000000  0.246541  0.000000  0.000000 -0.000000  0.000000
                                 0.000000 -0.565574 -0.000000  0.000000  0.000000  0.000000 -0.168098  0.000000 -0.000000 -0.718356
                                 0.000000  0.000000 -0.000000 -0.000000  0.000000  0.171350  0.385857  0.167550 -0.385857 -0.167550
                                 0.385857  0.167550 -0.385857 -0.167550

  50.1  0.00000     2.041020     0.000000  0.000000  0.000000  0.129766 -0.000000 -0.000000 -0.321545 -0.000000  0.000000 -0.000000
                                -0.000000  0.617658  0.000000 -0.000000  0.000000 -0.000000  0.000000  0.119656 -0.000000  0.000000
                                 0.593001  0.000000 -0.000000  0.000000  0.000000 -0.322845  0.000000  0.000000 -0.000000  0.000000
                                -0.000000 -0.119656  0.000000  0.000000 -0.593001  0.000000 -0.000000 -0.000000 -0.000000 -0.322845
                                -0.000000 -0.000000  0.000000 -0.000000 -0.000000 -0.129766 -0.000000 -0.000000  0.321545 -0.000000
                                -0.000000 -0.000000  0.000000  0.617658 -0.000000  0.000000  0.000000  0.000000 -0.000000 -0.000000
                                 0.000000  0.000000 -0.000000 -0.000000

  51.1  0.00000     2.052775     0.000000 -0.000000  0.000000 -0.000000 -0.000000 -0.000000 -0.000000 -0.000000 -0.000000  0.000000
                                 0.606922  0.000000 -0.000000  0.000000 -0.000000  0.000000 -0.000000  0.000000 -0.000000 -0.000000
                                 0.000000  0.000000 -0.000000 -0.000000 -0.392360 -0.000000 -0.000000  0.000000 -0.000000 -0.000000
                                 0.000000  0.000000  0.000000 -0.000000 -0.000000  0.000000 -0.000000  0.000000 -0.392360 -0.000000
                                 0.000000 -0.000000 -0.000000  0.000000 -0.000000 -0.000000 -0.000000  0.000000  0.000000 -0.000000
                                -0.000000 -0.000000  0.606922  0.000000  0.000000  0.000000  0.000000  0.000000 -0.000000 -0.000000
                                -0.000000  0.000000 -0.000000 -0.000000

  52.1  0.00000     2.125611     0.023548  0.127274 -3.715610 -0.000000 -0.000000  0.109277 -0.000000 -0.000000  1.124529 -0.032263
                                 0.000000 -0.000000  0.300617 -0.000000  0.015105  0.130612 -4.755629 -0.000000  0.000000 -0.046408
                                -0.000000  0.000000  6.215019 -0.047769 -0.000000 -0.000000  0.649176  0.000000 -0.015105 -0.130612
                                 4.755629  0.000000 -0.000000 -0.046408  0.000000 -0.000000  6.215019  0.047769  0.000000  0.000000
                                -0.649176  0.000000 -0.023548 -0.127274  3.715610 -0.000000  0.000000  0.109277 -0.000000  0.000000
                                 1.124529  0.032263  0.000000 -0.000000 -0.300617 -0.000000 -0.226808 -0.062650 -0.226808 -0.062650
                                 0.226808  0.062650  0.226808  0.062650

  53.1  0.00000     2.298958    -0.000000  0.000000 -0.000000  0.000000  0.000000 -0.000000  0.000000  0.000000  0.000000 -0.000000
                                -0.349085 -0.000000  0.000000  0.000000 -0.000000  0.000000  0.000000 -0.000000 -0.000000 -0.000000
                                -0.000000 -0.000000  0.000000 -0.000000  0.680087  0.000000 -0.000000 -0.000000 -0.000000  0.000000
                                 0.000000  0.000000  0.000000  0.000000  0.000000  0.000000 -0.000000 -0.000000 -0.680087  0.000000
                                -0.000000 -0.000000  0.000000  0.000000 -0.000000 -0.000000 -0.000000  0.000000 -0.000000 -0.000000
                                -0.000000 -0.000000  0.349085 -0.000000  0.000000  0.000000  0.000000  0.000000 -0.000000  0.000000
                                -0.000000 -0.000000  0.000000  0.000000

  54.1  0.00000     2.370141    -0.000000  0.000000 -0.000000  0.000000  0.171456  0.000000  0.000000  0.655921  0.000000  0.000000
                                 0.000000 -0.000000  0.000000  0.565322  0.000000 -0.000000 -0.000000 -0.000000  0.229139  0.000000
                                -0.000000 -0.392520  0.000000  0.000000 -0.000000  0.000000  0.000000 -0.445852 -0.000000  0.000000
                                 0.000000 -0.000000 -0.229139  0.000000 -0.000000  0.392520  0.000000 -0.000000  0.000000 -0.000000
                                -0.000000 -0.445852 -0.000000 -0.000000  0.000000  0.000000 -0.171456 -0.000000  0.000000 -0.655921
                                 0.000000  0.000000 -0.000000  0.000000 -0.000000  0.565322  0.486004  0.095197 -0.486004 -0.095197
                                -0.486004 -0.095197  0.486004  0.095197

  55.1  0.00000     2.446570    -0.030286 -0.420528  1.733316 -0.000000 -0.000000  0.063932 -0.000000 -0.000000 -0.866465  0.623912
                                -0.000000 -0.000000 -0.128176 -0.000000 -0.004990 -0.509571 -1.157071  0.000000 -0.000000 -0.093501
                                 0.000000  0.000000 -0.941848  0.340952  0.000000 -0.000000  0.030615  0.000000 -0.004990 -0.509571
                                -1.157071 -0.000000  0.000000  0.093501 -0.000000  0.000000  0.941848  0.340952 -0.000000  0.000000
                                 0.030615  0.000000 -0.030286 -0.420528  1.733316  0.000000  0.000000 -0.063932  0.000000  0.000000
                                 0.866465  0.623912  0.000000  0.000000 -0.128176 -0.000000 -0.044079 -0.039239 -0.044079 -0.039239
                                -0.044079 -0.039239 -0.044079 -0.039239

  56.1  0.00000     2.492520     0.039681  0.188061 -2.109598  0.000000  0.000000  0.010984  0.000000  0.000000  0.506137  0.086541
                                 0.000000  0.000000  0.736113  0.000000 -0.010941 -0.220035  1.750679 -0.000000  0.000000 -0.143686
                                -0.000000 -0.000000  1.362958  0.085420  0.000000  0.000000 -0.178885 -0.000000 -0.010941 -0.220035
                                 1.750679  0.000000 -0.000000  0.143686  0.000000  0.000000 -1.362958  0.085420 -0.000000 -0.000000
                                -0.178885 -0.000000  0.039681  0.188061 -2.109598 -0.000000  0.000000 -0.010984 -0.000000 -0.000000
                                -0.506137  0.086541 -0.000000 -0.000000  0.736113  0.000000  0.449968  0.011180  0.449968  0.011180
                                 0.449968  0.011180  0.449968  0.011180

  57.1  0.00000     2.548039    -0.000000 -0.000000  0.000000 -0.064753 -0.000000 -0.000000 -0.154978  0.000000 -0.000000  0.000000
                                 0.000000  0.675894 -0.000000 -0.000000 -0.000000 -0.000000  0.000000  0.214862  0.000000 -0.000000
                                 0.095639  0.000000 -0.000000  0.000000 -0.000000  0.502216  0.000000 -0.000000  0.000000  0.000000
                                -0.000000  0.214862 -0.000000 -0.000000  0.095639 -0.000000 -0.000000 -0.000000 -0.000000 -0.502216
                                -0.000000  0.000000  0.000000  0.000000 -0.000000 -0.064753  0.000000 -0.000000 -0.154978 -0.000000
                                -0.000000 -0.000000 -0.000000 -0.675894  0.000000  0.000000  0.000000  0.000000 -0.000000 -0.000000
                                -0.000000 -0.000000  0.000000  0.000000

  58.1  0.00000     2.574717     0.046078  0.192850 -4.672339 -0.000000  0.000000  0.129794 -0.000000 -0.000000  1.594944 -0.261992
                                 0.000000  0.000000  0.656641 -0.000000  0.009271  0.089270 -4.696055  0.000000 -0.000000  0.148417
                                 0.000000 -0.000000  7.120004 -0.056154 -0.000000  0.000000 -0.357218  0.000000 -0.009271 -0.089270
                                 4.696055  0.000000  0.000000  0.148417  0.000000 -0.000000  7.120004  0.056154 -0.000000 -0.000000
                                 0.357218  0.000000 -0.046078 -0.192850  4.672339 -0.000000 -0.000000  0.129794 -0.000000  0.000000
                                 1.594944  0.261992  0.000000 -0.000000 -0.656641 -0.000000 -0.399325  0.017786 -0.399325  0.017786
                                 0.399325 -0.017786  0.399325 -0.017786

  59.1  0.00000     2.692840    -0.021266 -0.125733 -1.636326  0.000000  0.000000 -0.098446  0.000000 -0.000000  0.211756  0.764995
                                -0.000000  0.000000  0.225471 -0.000000  0.023637  0.010091 -4.701009  0.000000 -0.000000 -0.787605
                                 0.000000 -0.000000  4.590483  0.042258 -0.000000  0.000000 -0.096782  0.000000 -0.023637 -0.010091
                                 4.701009 -0.000000  0.000000 -0.787605 -0.000000  0.000000  4.590483 -0.042258  0.000000 -0.000000
                                 0.096782  0.000000  0.021266  0.125733  1.636326  0.000000 -0.000000 -0.098446  0.000000  0.000000
                                 0.211756 -0.764995 -0.000000 -0.000000 -0.225471 -0.000000 -0.191539  0.027416 -0.191539  0.027416
                                 0.191539 -0.027416  0.191539 -0.027416

  60.1  0.00000     2.800983    -0.000000  0.000000  0.000000 -0.000000  0.043757 -0.000000 -0.000000  0.203113 -0.000000  0.000000
                                -0.000000  0.000000 -0.000000  0.818365  0.000000 -0.000000  0.000000  0.000000  0.220349 -0.000000
                                 0.000000 -0.052960 -0.000000 -0.000000 -0.000000  0.000000  0.000000  0.350964  0.000000  0.000000
                                -0.000000 -0.000000  0.220349 -0.000000 -0.000000 -0.052960 -0.000000 -0.000000  0.000000 -0.000000
                                -0.000000 -0.350964  0.000000  0.000000 -0.000000 -0.000000  0.043757 -0.000000 -0.000000  0.203113
                                -0.000000 -0.000000  0.000000 -0.000000  0.000000 -0.818365 -0.409820  0.067991  0.409820 -0.067991
                                -0.409820  0.067991  0.409820 -0.067991

  61.1  0.00000     3.275580     0.039590 -0.295735 -1.050958 -0.000000 -0.000000  0.568169 -0.000000  0.000000  0.648892 -0.696172
                                -0.000000  0.000000 -0.010906  0.000000 -0.056323  0.014751  1.321319 -0.000000  0.000000  0.707523
                                 0.000000  0.000000  0.506942  0.816179  0.000000  0.000000 -0.000715  0.000000 -0.056323  0.014751
                                 1.321319  0.000000  0.000000 -0.707523 -0.000000  0.000000 -0.506942  0.816179 -0.000000  0.000000
                                -0.000715  0.000000  0.039590 -0.295735 -1.050958  0.000000  0.000000 -0.568169  0.000000 -0.000000
                                -0.648892 -0.696172  0.000000  0.000000 -0.010906  0.000000 -0.014461 -0.039482 -0.014461 -0.039482
                                -0.014461 -0.039482 -0.014461 -0.039482

  62.1  0.00000     3.312914    -0.000000  0.000000  0.000000 -0.145146 -0.000000 -0.000000 -0.106781  0.000000 -0.000000  0.000000
                                 0.000000  0.514110  0.000000  0.000000  0.000000 -0.000000 -0.000000 -0.145884  0.000000 -0.000000
                                 0.085029  0.000000 -0.000000 -0.000000 -0.000000  0.981878 -0.000000  0.000000  0.000000  0.000000
                                -0.000000  0.145884 -0.000000  0.000000 -0.085029  0.000000  0.000000 -0.000000  0.000000  0.981878
                                 0.000000  0.000000 -0.000000  0.000000  0.000000  0.145146  0.000000  0.000000  0.106781  0.000000
                                 0.000000  0.000000 -0.000000  0.514110 -0.000000  0.000000  0.000000 -0.000000 -0.000000  0.000000
                                -0.000000 -0.000000  0.000000  0.000000

  63.1  0.00000     3.411131     0.000000 -0.000000 -0.000000 -0.000000 -0.092185  0.000000 -0.000000  0.171148  0.000000  0.000000
                                 0.000000 -0.000000  0.000000  0.639262 -0.000000  0.000000 -0.000000  0.000000 -0.070970 -0.000000
                                 0.000000 -0.173248  0.000000 -0.000000  0.000000 -0.000000 -0.000000  0.934185  0.000000 -0.000000
                                 0.000000  0.000000  0.070970 -0.000000  0.000000  0.173248  0.000000  0.000000 -0.000000  0.000000
                                 0.000000  0.934185 -0.000000  0.000000  0.000000 -0.000000  0.092185  0.000000 -0.000000 -0.171148
                                 0.000000  0.000000  0.000000 -0.000000 -0.000000  0.639262  0.247894 -0.025621 -0.247894  0.025621
                                -0.247894  0.025621  0.247894 -0.025621

  64.1  0.00000     3.997187     0.034839 -0.388489  0.668873 -0.000000  0.000000  0.593957 -0.000000  0.000000 -0.029881 -0.575282
                                -0.000000 -0.000000 -0.021096  0.000000 -0.086981  0.830326  4.463741  0.000000 -0.000000 -0.556491
                                 0.000000 -0.000000 -2.898883  1.584032  0.000000 -0.000000  0.001901  0.000000  0.086981 -0.830326
                                -4.463741  0.000000  0.000000 -0.556491  0.000000  0.000000 -2.898883 -1.584032  0.000000 -0.000000
                                -0.001901  0.000000 -0.034839  0.388489 -0.668873 -0.000000 -0.000000  0.593957 -0.000000 -0.000000
                                -0.029881  0.575282 -0.000000 -0.000000  0.021096  0.000000  0.027666  0.033740  0.027666  0.033740
                                -0.027666 -0.033740 -0.027666 -0.033740
 

 Natural orbital dump at molpro section  2141.2    (Orbital set 2)


 CI vector
 =========

 222000      0.9281610
 220200     -0.2435657
 202020     -0.1551276
 b2aa0b     -0.0963829
 a2bb0a     -0.0963829
 022200     -0.0726485
 022002     -0.0623957
 b2ab0a      0.0602538
 a2ba0b      0.0602538

 TOTAL ENERGIES                      -153.78047323



 **********************************************************************************************************************************
 DATASETS  * FILE   NREC   LENGTH (MB)   RECORD NAMES
              1      21       30.23       500      610      700      900      950      970     1000      129      960     1100   
                                          VAR    BASINP    GEOM    SYMINP    ZMAT    AOBASIS   BASIS     P2S    ABASIS      S 
                                         1400     1410     1200     1210     1080     1600     1650     1300     1700     1380   
                                           T        V       H0       H01     AOSYM     SMH    MOLCAS    ERIS     OPER     JKOP   
                                         5101   
                                        CPSAMC    

              2       5        5.63       700     1000      520     2100     2141   
                                         GEOM     BASIS   MCVARS     RHF     MCSCF   

 PROGRAMS   *        TOTAL     MULTI        HF       INT
 CPU TIMES  *         3.14      2.02      0.34      0.60
 REAL TIME  *         3.64 SEC
 DISK USED  *        72.87 MB      
 **********************************************************************************************************************************

1PROGRAM * FORCE (Gradient of the energy)

 SA-MCSCF information from    5101.1
 Orbitals from record         2141.2

 Number of closed-shell orbitals: 11 ( 11 )
 Number of active orbitals:        6 (  6 )
 Number of occupied orbitals:     17 ( 17 )

 Number of electrons= 28     Singlet     Space symmetry=1      Wavefunction type: SA-MCSCF


 End of calculation of the energy gradient  ,IREST=   0


 SA-MC GRADIENT FOR STATE 1.1

 Atom          dE/dx               dE/dy               dE/dz

   1         0.000000001        -0.000000000        -0.000014351
   2        -0.000000000        -0.000000001         0.000026350
   3        -0.000000000         0.000000000        -0.000026350
   4        -0.000000000         0.000000001         0.000014351
   5        -0.000000000         0.000000604        -0.000002412
   6         0.000000000        -0.000000604        -0.000002412
   7         0.000000000         0.000000604         0.000002412
   8        -0.000000000        -0.000000604         0.000002412

 Nuclear force contribution to virial =         0.000006667


 **********************************************************************************************************************************
 DATASETS  * FILE   NREC   LENGTH (MB)   RECORD NAMES
              1      21       30.23       500      610      700      900      950      970     1000      129      960     1100   
                                          VAR    BASINP    GEOM    SYMINP    ZMAT    AOBASIS   BASIS     P2S    ABASIS      S 
                                         1400     1410     1200     1210     1080     1600     1650     1300     1700     1380   
                                           T        V       H0       H01     AOSYM     SMH    MOLCAS    ERIS     OPER     JKOP   
                                         5101   
                                        CPSAMC    

              2       5        5.63       700     1000      520     2100     2141   
                                         GEOM     BASIS   MCVARS     RHF     MCSCF   

 PROGRAMS   *        TOTAL     FORCE     MULTI        HF       INT
 CPU TIMES  *         4.57      1.41      2.02      0.34      0.60
 REAL TIME  *         5.08 SEC
 DISK USED  *        72.87 MB      
 **********************************************************************************************************************************


 PROGRAM * HESSIAN

 Computing numerical hessian using default procedure for command MULTI

 Symmetry elements for unique displacements: X  Y  Z  

 Using no symmetry in wavefunction calculations

 Running default procedure: MULTI000
 

 *** Long output written to logfile /home/graham/scratch/molpro/but_fc_cas_freq_1/but_fc_cas_freq.log ***


 Numerically approximating hessian using central gradient differences

 Task list generated. Total number of displacements:     13

    5 tasks completed, CPU=14s Elapsed=14s
   10 tasks completed, CPU=30s Elapsed=30s

 Numerical MULTI000 hessian completed. CPU-time:    40.35 sec, Elapsed:    40.39 sec

 MULTI hessian saved to record  5300.2

 FREQUENCIES * CALCULATION OF HARMONIC VIBRATIONAL SPECTRA FOR MULTI


 Permanent Dipole Moment [debye]
   1-  3   -0.000000    0.000000   -0.000000

 Dipole Moment Norm    0.0000000 [debye]

 Dipole Moment Derivatives [debye/ang]
                   1             2             3             4             5             6             7             8
         1    -1.3136688     0.0000000     0.0000000    -0.0163288     0.0000000     0.0000000    -0.0163288     0.0000000
         2     0.0000000     1.0301146    -0.0000000     0.0000000    -0.6053555    -0.0000000     0.0000000    -0.6053555
         3     0.0000000     0.0000000     0.4621738     0.0000000     0.0000000    -0.0763918     0.0000000     0.0000000
                   9            10            11            12            13            14            15            16
         1    -0.0000000    -1.3136688     0.0000000    -0.0000000     0.6649373    -0.0000000     0.0000000     0.6649373
         2     0.0000000     0.0000000     1.0301146     0.0000000     0.0000000    -0.2124180     0.1724592     0.0000000
         3    -0.0763918     0.0000000     0.0000000     0.4621738     0.0000000     0.3090028    -0.1927914     0.0000000
                  17            18            19            20            21            22            23            24
         1     0.0000000     0.0000000     0.6649373    -0.0000000    -0.0000000     0.6649373     0.0000000    -0.0000000
         2    -0.2124180    -0.1724592     0.0000000    -0.2124180    -0.1724592     0.0000000    -0.2124180     0.1724592
         3    -0.3090028    -0.1927914     0.0000000    -0.3090028    -0.1927914     0.0000000     0.3090028    -0.1927914

 Force Constants (Second Derivatives of the Energy) in [a.u.]
                             GX1         GY1         GZ1         GX2         GY2     
           GX1           0.0726461
           GY1           0.0000000   0.6679976
           GZ1          -0.0000000  -0.0000000   0.8635138
           GX2          -0.0252236   0.0000000   0.0000000   0.0547118
           GY2           0.0000000  -0.0708347  -0.0000000   0.0000000   0.0642234
           GZ2           0.0000000  -0.0000000  -0.5268505  -0.0000000   0.0000000
           GX3           0.0000985   0.0000000   0.0000000  -0.0397542   0.0000000
           GY3           0.0000000  -0.0010436   0.0000000   0.0000000  -0.0085764
           GZ3          -0.0000000   0.0000000  -0.0774923   0.0000000   0.0000000
           GX4           0.0011218   0.0000000  -0.0000000   0.0000985   0.0000000
           GY4           0.0000000   0.0051005   0.0000000   0.0000000  -0.0010436
           GZ4           0.0000000  -0.0000000   0.0293222  -0.0000000  -0.0000000
           GX5           0.0001865  -0.0000000   0.0000000   0.0035394  -0.0000000
           GY5           0.0000000  -0.0000843   0.0005069  -0.0000000  -0.0001538
           GZ5           0.0000000  -0.0008374  -0.0002393   0.0000000   0.0007796
           GX6           0.0001865   0.0000000  -0.0000000   0.0035394   0.0000000
           GY6          -0.0000000  -0.0000843  -0.0005069   0.0000000  -0.0001538
           GZ6           0.0000000   0.0008374  -0.0002393   0.0000000  -0.0007796
           GX7          -0.0245067  -0.0000000   0.0000000   0.0015439  -0.0000000
           GY7           0.0000000  -0.3005277  -0.1365514   0.0000000   0.0082713
           GZ7          -0.0000000  -0.1386945  -0.1440103   0.0000000  -0.0271873
           GX8          -0.0245067   0.0000000  -0.0000000   0.0015439   0.0000000
           GY8          -0.0000000  -0.3005277   0.1365514  -0.0000000   0.0082713
           GZ8          -0.0000000   0.1386945  -0.1440103   0.0000000   0.0271873
                             GZ2         GX3         GY3         GZ3         GX4     
           GZ2           1.3274170
           GX3          -0.0000000   0.0547118
           GY3          -0.0000000   0.0000000   0.0642234
           GZ3          -0.6803522   0.0000000  -0.0000000   1.3274170
           GX4           0.0000000  -0.0252236   0.0000000  -0.0000000   0.0726461
           GY4          -0.0000000   0.0000000  -0.0708347   0.0000000   0.0000000
           GZ4          -0.0774923  -0.0000000   0.0000000  -0.5268505   0.0000000
           GX5           0.0000000   0.0015439  -0.0000000  -0.0000000  -0.0245067
           GY5          -0.0024892   0.0000000   0.0082713   0.0009864   0.0000000
           GZ5           0.0001383  -0.0000000   0.0271873  -0.0214972   0.0000000
           GX6           0.0000000   0.0015439   0.0000000   0.0000000  -0.0245067
           GY6           0.0024892  -0.0000000   0.0082713  -0.0009864  -0.0000000
           GZ6           0.0001383  -0.0000000  -0.0271873  -0.0214972   0.0000000
           GX7           0.0000000   0.0035394  -0.0000000  -0.0000000   0.0001865
           GY7          -0.0009864  -0.0000000  -0.0001538   0.0024892   0.0000000
           GZ7          -0.0214972  -0.0000000  -0.0007796   0.0001383  -0.0000000
           GX8          -0.0000000   0.0035394   0.0000000  -0.0000000   0.0001865
           GY8           0.0009864   0.0000000  -0.0001538  -0.0024892  -0.0000000
           GZ8          -0.0214972  -0.0000000   0.0007796   0.0001383  -0.0000000
                             GY4         GZ4         GX5         GY5         GZ5     
           GY4           0.6679976
           GZ4           0.0000000   0.8635138
[...]
         8     0.0000000    -0.0000000     0.0000000     0.0000000     0.0000000     0.0000000    -0.0016735    -0.0010936
         9    -0.3618813    -0.0771156    -0.3717430    -0.6773555    -0.0072130    -0.0143455    -0.0000000     0.0000000
        10    -0.0000000     0.0000000     0.0000000     0.0000000     0.0000000    -0.0000000    -0.0000000    -0.0000000
        11    -0.0000000     0.0000000    -0.0000000    -0.0000000     0.0000000    -0.0000000    -0.2312531    -0.2312613
        12     0.1455279    -0.2520480     0.4727070     0.1965103     0.1533176     0.1572357     0.0000000    -0.0000000
        13    -0.0000000    -0.0000000     0.0000000     0.0000000    -0.0000000     0.0000000    -0.0000000     0.0000000
        14     0.1856982     0.2680480    -0.1969947    -0.0308648     0.4206841     0.4203680     0.4020325     0.4020781
        15     0.3734273     0.3786988    -0.1742719     0.0182755    -0.2474788    -0.2466299    -0.2482527    -0.2481767
        16    -0.0000000    -0.0000000     0.0000000     0.0000000    -0.0000000     0.0000000     0.0000000    -0.0000000
        17    -0.1856982    -0.2680480     0.1969947     0.0308648    -0.4206841    -0.4203680     0.4020325     0.4020781
        18     0.3734273     0.3786988    -0.1742719     0.0182755    -0.2474788    -0.2466299     0.2482527     0.2481767
        19     0.0000000    -0.0000000    -0.0000000     0.0000000    -0.0000000    -0.0000000    -0.0000000    -0.0000000
        20    -0.1856982     0.2680480     0.1969947    -0.0308648     0.4206841    -0.4203680     0.4020325    -0.4020781
        21     0.3734273    -0.3786988    -0.1742719    -0.0182755     0.2474788    -0.2466299     0.2482527    -0.2481767
        22     0.0000000    -0.0000000    -0.0000000     0.0000000    -0.0000000    -0.0000000     0.0000000     0.0000000
        23     0.1856982    -0.2680480    -0.1969947     0.0308648    -0.4206841     0.4203680     0.4020325    -0.4020781
        24     0.3734273    -0.3786988    -0.1742719    -0.0182755     0.2474788    -0.2466299    -0.2482527     0.2481767

 Imaginary Vibration  Wavenumber
        Nr             [1/cm] 
        1                2.11
        2                0.02
        3                0.01
        4                0.01

   Low Vibration      Wavenumber
        Nr             [1/cm] 
        1                2.02
        2               11.22

     Vibration        Wavenumber
        Nr             [1/cm] 
        1              157.56
        2              212.37
        3              238.65
        4              473.94
        5              757.79
        6              808.94
        7              811.34
        8              908.47
        9             1093.73
       10             1108.92
       11             1518.12
       12             1617.48
       13             1717.56
       14             2171.44
       15             3328.13
       16             3329.83
       17             3415.46
       18             3415.56

 FREQUENCIES * CALCULATION OF NORMAL MODES FOR MULTI


 Atomic Coordinates

  Nr  Atom  Charge       X              Y              Z

   1   C1    6.00    0.000000000    0.000000000    3.713629955
   2   C2    6.00    0.000000000    0.000000000    1.197073195
   3   C3    6.00    0.000000000    0.000000000   -1.197073195
   4   C4    6.00    0.000000000    0.000000000   -3.713629955
   5   H1    1.00    0.000000000    1.737492121   -4.764751418
   6   H2    1.00    0.000000000   -1.737492121   -4.764751418
   7   H3    1.00    0.000000000    1.737492121    4.764751418
   8   H4    1.00    0.000000000   -1.737492121    4.764751418

 Frequencies dumped to record   5400.2

 Gradient norm at reference geometry: 0.42723D-04

 Normal Modes

                              1 B2u       2 B1u       3 B1g       4 B2g       5 Au 
 Wavenumbers [cm-1]          157.56      212.37      238.65      473.94      757.79
 Intensities [km/mol]          4.30        2.44        0.00        0.00        0.00
 Intensities [relative]        5.13        2.91        0.00        0.00        0.00
           GX1             -0.00000    -0.11401     0.00000    -0.04795    -0.00000
           GY1             -0.10142     0.00000    -0.02215    -0.00000    -0.00000
           GZ1              0.00000    -0.00000     0.00000     0.00000     0.00000
           GX2             -0.00000     0.14777    -0.00000     0.19618     0.00000
           GY2              0.13661     0.00000     0.18618     0.00000     0.00000
           GZ2             -0.00000    -0.00000     0.00000     0.00000    -0.00000
           GX3              0.00000     0.14777     0.00000    -0.19618    -0.00000
           GY3              0.13661     0.00000    -0.18618    -0.00000    -0.00000
           GZ3              0.00000     0.00000     0.00000     0.00000    -0.00000
           GX4             -0.00000    -0.11401    -0.00000     0.04795     0.00000
           GY4             -0.10142     0.00000     0.02215     0.00000     0.00000
           GZ4             -0.00000     0.00000     0.00000     0.00000     0.00000
           GX5              0.00000    -0.20119    -0.00000     0.07090     0.49803
           GY5             -0.20954     0.00000     0.11802    -0.00000     0.00000
           GZ5             -0.17786     0.00000     0.15699     0.00000     0.00000
           GX6             -0.00000    -0.20119     0.00000     0.07090    -0.49803
           GY6             -0.20954    -0.00000     0.11802     0.00000     0.00000
           GZ6              0.17786     0.00000    -0.15699     0.00000    -0.00000
           GX7              0.00000    -0.20119     0.00000    -0.07090    -0.49803
           GY7             -0.20954     0.00000    -0.11802     0.00000    -0.00000
           GZ7              0.17786    -0.00000     0.15699     0.00000     0.00000
           GX8             -0.00000    -0.20119    -0.00000    -0.07090     0.49803
           GY8             -0.20954    -0.00000    -0.11802    -0.00000    -0.00000
           GZ8             -0.17786    -0.00000    -0.15699     0.00000    -0.00000

                              6 B1u       7 B2g       8 Ag        9 B1g      10 B2u
 Wavenumbers [cm-1]          808.94      811.34      908.47     1093.73     1108.92
 Intensities [km/mol]         83.86        0.00        0.00        0.00        0.57
 Intensities [relative]      100.00        0.00        0.00        0.00        0.68
           GX1             -0.09710     0.09574    -0.00000     0.00000     0.00000
           GY1              0.00000    -0.00000    -0.00000     0.08546    -0.08766
           GZ1             -0.00000    -0.00000     0.17654    -0.00000     0.00000
           GX2              0.02425    -0.00327     0.00000    -0.00000     0.00000
           GY2              0.00000     0.00000     0.00000    -0.06263     0.06136
           GZ2             -0.00000    -0.00000     0.05413     0.00000    -0.00000
           GX3              0.02425     0.00327     0.00000     0.00000     0.00000
           GY3             -0.00000     0.00000     0.00000     0.06263     0.06136
           GZ3              0.00000    -0.00000    -0.05413     0.00000     0.00000
           GX4             -0.09710    -0.09574    -0.00000     0.00000    -0.00000
           GY4             -0.00000     0.00000    -0.00000    -0.08546    -0.08766
           GZ4              0.00000    -0.00000    -0.17654    -0.00000    -0.00000
           GX5              0.43400     0.43972     0.00000     0.00000    -0.00000
           GY5              0.00000     0.00000    -0.01486     0.15911     0.15671
           GZ5              0.00000     0.00000    -0.21131     0.39475     0.39402
           GX6              0.43400     0.43972     0.00000    -0.00000     0.00000
           GY6             -0.00000    -0.00000     0.01486     0.15911     0.15671
           GZ6              0.00000     0.00000    -0.21131    -0.39475    -0.39402
           GX7              0.43400    -0.43972     0.00000    -0.00000    -0.00000
           GY7              0.00000    -0.00000    -0.01486    -0.15911     0.15671
           GZ7             -0.00000     0.00000     0.21131     0.39475    -0.39402
           GX8              0.43400    -0.43972     0.00000     0.00000     0.00000
           GY8             -0.00000     0.00000     0.01486    -0.15911     0.15671
           GZ8             -0.00000     0.00000     0.21131    -0.39475     0.39402

                             11 B3u      12 Ag       13 B3u      14 Ag       15 Ag 
 Wavenumbers [cm-1]         1518.12     1617.48     1717.56     2171.44     3328.13
 Intensities [km/mol]          0.00        0.00        0.05        0.00        0.00
 Intensities [relative]        0.00        0.00        0.06        0.00        0.00
           GX1              0.00000     0.00000    -0.00000     0.00000     0.00000
           GY1              0.00000     0.00000     0.00000    -0.00000     0.00000
           GZ1              0.04199     0.07273     0.13640    -0.05670    -0.04424
           GX2              0.00000    -0.00000    -0.00000    -0.00000    -0.00000
           GY2             -0.00000    -0.00000    -0.00000     0.00000     0.00000
           GZ2             -0.10442     0.02225    -0.10726     0.19545     0.00208
           GX3             -0.00000    -0.00000     0.00000    -0.00000    -0.00000
           GY3              0.00000    -0.00000     0.00000     0.00000     0.00000
           GZ3             -0.10442    -0.02225    -0.10726    -0.19545    -0.00208
           GX4             -0.00000     0.00000     0.00000     0.00000     0.00000
           GY4             -0.00000     0.00000    -0.00000    -0.00000     0.00000
           GZ4              0.04199    -0.07273     0.13640     0.05670     0.04424
           GX5             -0.00000    -0.00000     0.00000     0.00000    -0.00000
           GY5              0.18497     0.26699    -0.19622    -0.03074     0.41902
           GZ5              0.37195     0.37720    -0.17358     0.01820    -0.24650
           GX6             -0.00000    -0.00000     0.00000     0.00000    -0.00000
           GY6             -0.18497    -0.26699     0.19622     0.03074    -0.41902
           GZ6              0.37195     0.37720    -0.17358     0.01820    -0.24650
           GX7              0.00000    -0.00000    -0.00000     0.00000    -0.00000
           GY7             -0.18497     0.26699     0.19622    -0.03074     0.41902
           GZ7              0.37195    -0.37720    -0.17358    -0.01820     0.24650
           GX8              0.00000    -0.00000    -0.00000     0.00000    -0.00000
           GY8              0.18497    -0.26699    -0.19622     0.03074    -0.41902
           GZ8              0.37195    -0.37720    -0.17358    -0.01820     0.24650

                             16 B3u      17 B2u      18 B1g
 Wavenumbers [cm-1]         3329.83     3415.46     3415.56
 Intensities [km/mol]         23.74       17.73        0.00
 Intensities [relative]       28.31       21.14        0.00
           GX1              0.00000     0.00000     0.00000
           GY1              0.00000    -0.06673     0.06673
           GZ1              0.04537    -0.00000    -0.00000
           GX2             -0.00000     0.00000     0.00000
           GY2             -0.00000    -0.00048     0.00032
           GZ2             -0.00414     0.00000     0.00000
           GX3              0.00000     0.00000    -0.00000
           GY3              0.00000    -0.00048    -0.00032
           GZ3             -0.00414    -0.00000     0.00000
           GX4             -0.00000    -0.00000    -0.00000
           GY4             -0.00000    -0.06673    -0.06673
           GZ4              0.04537     0.00000    -0.00000
           GX5              0.00000    -0.00000     0.00000
           GY5              0.41871     0.40045     0.40049
           GZ5             -0.24566    -0.24727    -0.24720
           GX6              0.00000     0.00000    -0.00000
           GY6             -0.41871     0.40045     0.40049
           GZ6             -0.24566     0.24727     0.24720
           GX7             -0.00000    -0.00000    -0.00000
           GY7             -0.41871     0.40045    -0.40049
           GZ7             -0.24566     0.24727    -0.24720
           GX8             -0.00000     0.00000     0.00000
           GY8              0.41871     0.40045    -0.40049
           GZ8             -0.24566    -0.24727     0.24720


 Normal Modes of imaginary frequencies

                                  1           2           3           4
 Wavenumbers [cm-1]            2.11        0.02        0.01        0.01
 Intensities [km/mol]          0.00        0.00        0.00        0.00
 Intensities [relative]        0.00        0.00        0.00        0.00
           GX1             -0.00000     0.00008    -0.00111     0.13857
           GY1              0.17141     0.13858    -0.00004    -0.00008
           GZ1              0.00004     0.00000     0.13857     0.00000
           GX2             -0.00000     0.00008    -0.00036     0.13858
           GY2              0.05516     0.13856    -0.00001    -0.00008
           GZ2              0.00004     0.00000     0.13857     0.00000
           GX3              0.00000     0.00008     0.00036     0.13858
           GY3             -0.05516     0.13856     0.00001    -0.00008
           GZ3              0.00004     0.00000     0.13857     0.00000
           GX4              0.00000     0.00008     0.00111     0.13857
           GY4             -0.17141     0.13858     0.00004    -0.00008
           GZ4              0.00004     0.00000     0.13857     0.00000
           GX5              0.00000     0.00057     0.00142     0.13857
           GY5             -0.21998     0.13859     0.00006    -0.00008
           GZ5             -0.08025     0.00001     0.13859     0.00000
           GX6              0.00000    -0.00042     0.00142     0.13857
           GY6             -0.21998     0.13859     0.00006    -0.00008
           GZ6              0.08032    -0.00001     0.13855     0.00000
           GX7             -0.00000     0.00057    -0.00142     0.13857
           GY7              0.21998     0.13859    -0.00006    -0.00008
           GZ7             -0.08025    -0.00001     0.13859     0.00000
           GX8             -0.00000    -0.00042    -0.00142     0.13857
           GY8              0.21998     0.13859    -0.00006    -0.00008
           GZ8              0.08032     0.00001     0.13855     0.00000


 Normal Modes of low/zero frequencies

                                  1           2
 Wavenumbers [cm-1]            2.02       11.22
 Intensities [km/mol]          0.00        0.00
 Intensities [relative]        0.00        0.00
           GX1              0.17367    -0.00000
           GY1             -0.00000    -0.00014
           GZ1              0.00088    -0.00000
           GX2              0.05597    -0.00000
           GY2             -0.00000    -0.00014
           GZ2              0.00088    -0.00000
           GX3             -0.05597    -0.00000
           GY3              0.00000    -0.00014
           GZ3              0.00088     0.00000
           GX4             -0.17367    -0.00000
           GY4              0.00000    -0.00014
           GZ4              0.00088     0.00000
           GX5             -0.22282     0.49803
           GY5              0.00000    -0.00014
           GZ5              0.00088     0.00000
           GX6             -0.22282    -0.49803
           GY6              0.00000    -0.00014
           GZ6              0.00088    -0.00000
           GX7              0.22282     0.49803
           GY7             -0.00000    -0.00014
           GZ7              0.00088    -0.00000
           GX8              0.22282    -0.49803
           GY8             -0.00000    -0.00014
           GZ8              0.00088     0.00000


 Zero point energy:  0.06170484 [H]    13542.65 [1/CM]      162.01 [KJ/MOL]
 Frequency information read from record  5400.2


 PROGRAM * MATROP

 
 Orbitals OLDORBITALS read from record   2141.2  Type=MCSCF/NATURAL (state 1.1)

 Matrix OLDORBITALS written to file but_000.dat                     


 **********************************************************************************************************************************
 DATASETS  * FILE   NREC   LENGTH (MB)   RECORD NAMES
              1      21       30.23       500      610      700      900      950      970     1000      129      960     1100   
                                          VAR    BASINP    GEOM    SYMINP    ZMAT    AOBASIS   BASIS     P2S    ABASIS      S 
                                         1400     1410     1200     1210     1080     1600     1650     1300     1700     1380   
                                           T        V       H0       H01     AOSYM     SMH    MOLCAS    ERIS     OPER     JKOP   
                                         5101   
                                        CPSAMC    

              2       8        5.67       700     1000      520     2100     2141     5300     5400     5450   
                                         GEOM     BASIS   MCVARS     RHF     MCSCF    HESS     FREQ     NMOD   

 PROGRAMS   *        TOTAL    MATROP      FREQ     FORCE     MULTI        HF       INT
 CPU TIMES  *        43.38      0.00     38.79      1.41      2.02      0.34      0.60
 REAL TIME  *        46.75 SEC
 DISK USED  *        76.85 MB      
 **********************************************************************************************************************************

 Dump information in style MOLDEN to but_000.molden                                                                  

 Molecular orbitals read from record     2141.2  Type=MCSCF/NATURAL (state 1.1)
 Occupation numbers read from record     2141.2  Type=MCSCF/NATURAL (state 1.1)
 Orbital energies read from record       2141.2  Type=MCSCF/NATURAL (state 1.1)
 Redundancy group numbers read from rec  2141.2  Type=MCSCF/NATURAL (state 1.1)
 
 DUMP ORBITAL  1.1 AS ORBITAL    1  occ=    2.0000  eig=  -11.2368  GROUP=   2
 DUMP ORBITAL  2.1 AS ORBITAL    2  occ=    2.0000  eig=  -11.2367  GROUP=   2
 DUMP ORBITAL  3.1 AS ORBITAL    3  occ=    2.0000  eig=  -11.2317  GROUP=   2
 DUMP ORBITAL  4.1 AS ORBITAL    4  occ=    2.0000  eig=  -11.2294  GROUP=   2
 DUMP ORBITAL  5.1 AS ORBITAL    5  occ=    2.0000  eig=   -1.0719  GROUP=   2
 DUMP ORBITAL  6.1 AS ORBITAL    6  occ=    2.0000  eig=   -0.9973  GROUP=   2
 DUMP ORBITAL  7.1 AS ORBITAL    7  occ=    2.0000  eig=   -0.8798  GROUP=   2
 DUMP ORBITAL  8.1 AS ORBITAL    8  occ=    2.0000  eig=   -0.6790  GROUP=   2
 DUMP ORBITAL  9.1 AS ORBITAL    9  occ=    2.0000  eig=   -0.6328  GROUP=   2
 DUMP ORBITAL 10.1 AS ORBITAL   10  occ=    2.0000  eig=   -0.5979  GROUP=   2
 DUMP ORBITAL 11.1 AS ORBITAL   11  occ=    2.0000  eig=   -0.5927  GROUP=   2
 DUMP ORBITAL 12.1 AS ORBITAL   12  occ=    1.9402  eig=   -0.4495  GROUP=   3
 DUMP ORBITAL 13.1 AS ORBITAL   13  occ=    1.9342  eig=   -0.3756  GROUP=   3
 DUMP ORBITAL 14.1 AS ORBITAL   14  occ=    1.8381  eig=   -0.2966  GROUP=   3
 DUMP ORBITAL 15.1 AS ORBITAL   15  occ=    0.1693  eig=    0.0952  GROUP=   3
 DUMP ORBITAL 16.1 AS ORBITAL   16  occ=    0.0659  eig=    0.2917  GROUP=   3
 DUMP ORBITAL 17.1 AS ORBITAL   17  occ=    0.0523  eig=    0.4150  GROUP=   3

 Total charge:      28.000000
 Frequency information read from record  5400.2

 **********************************************************************************************************************************

        MATROP          MULTI           HF-SCF  
   -153.78047323   -153.78047323   -153.68761397
 **********************************************************************************************************************************
 Variable memory released
